ITEM: TIMESTEP
100000
ITEM: NUMBER OF ATOMS
500
ITEM: BOX BOUNDS pp pp pp
0.0000000000000000e+00 8.0000000000000000e+00
0.0000000000000000e+00 8.0000000000000000e+00
0.0000000000000000e+00 8.0000000000000000e+00
ITEM: ATOMS id type xs ys zs
485 1 0.3208 0.0625629 0.0814129
448 1 0.460821 0.0615179 0.0760213
258 1 0.703091 0.0630067 0.0515326
73 1 0.215876 0.0881874 0.00529466
273 1 0.609282 0.137739 0.0493447
204 1 0.805254 0.119874 0.0352119
62 1 0.937459 0.143714 0.0151163
241 1 0.169593 0.206424 0.0642348
51 1 0.471302 0.214496 0.0064771
120 1 0.692292 0.228222 0.0533959
113 1 0.0143003 0.280599 0.0652533
437 1 0.311978 0.262849 0.0713952
46 1 0.439579 0.328888 0.00571506
379 1 0.552165 0.287265 0.0529621
100 1 0.901636 0.305834 0.0301254
19 1 0.649943 0.359168 0.0381604
245 1 0.0558346 0.461739 0.0479395
22 1 0.250049 0.444912 0.0328438
372 1 0.444964 0.475855 0.0551659
320 1 0.722413 0.468192 0.0211187
431 1 0.943389 0.49586 0.0337834
54 1 0.102973 0.58259 0.0430644
198 1 0.252284 0.563124 0.0814993
396 1 0.556928 0.500632 0.0144723
10 1 0.312505 0.663796 0.0717118
194 1 0.501044 0.639129 0.0691213
489 1 0.770319 0.620523 0.00205254
165 1 0.897817 0.613719 0.0241759
415 1 0.109523 0.720118 0.071344
157 1 0.587013 0.720365 0.0475775
92 1 0.238397 0.781773 0.0198757
221 1 0.374924 0.812851 0.0711438
217 1 0.782084 0.765796 0.0644986
188 1 0.999472 0.791913 0.00344876
341 1 0.0921236 0.863514 0.0334715
387 1 0.279123 0.915523 0.042136
32 1 0.871952 0.909151 0.0368848
384 1 0.0125517 0.984876 0.0802041
295 1 0.165255 0.973156 0.0463585
364 1 0.421979 0.932104 0.0347434
440 1 0.556566 0.95694 0.00122672
477 1 0.240193 0.00078162 0.136982
193 1 0.586243 0.0244978 0.0951206
496 1 0.796005 0.0507017 0.132096
212 1 0.0532663 0.121633 0.101887
380 1 0.200768 0.110108 0.137426
327 1 0.664734 0.0949325 0.16349
115 1 0.392196 0.175992 0.129776
240 1 0.513214 0.221772 0.146596
227 1 0.758613 0.172836 0.143175
76 1 0.876433 0.192456 0.117026
336 1 0.987791 0.197603 0.164994
147 1 0.421657 0.302827 0.126241
81 1 0.754976 0.325373 0.110998
172 1 0.885578 0.30517 0.15019
259 1 0.109939 0.341036 0.107684
228 1 0.228228 0.351537 0.120436
371 1 0.340133 0.402677 0.096715
36 1 0.520758 0.39607 0.0958338
462 1 0.650207 0.346308 0.164166
149 1 0.971514 0.393272 0.123083
337 1 0.10399 0.463121 0.164263
420 1 0.230099 0.472796 0.159954
200 1 0.660893 0.482751 0.127046
351 1 0.845938 0.419869 0.0839142
319 1 0.358583 0.513338 0.142616
222 1 0.514995 0.506857 0.159736
298 1 0.810316 0.549325 0.0904115
211 1 0.995822 0.520147 0.157143
83 1 0.0198979 0.648923 0.0929439
455 1 0.634759 0.612169 0.0868834
250 1 0.745099 0.657598 0.120684
268 1 0.568628 0.683852 0.159986
31 1 0.923973 0.719651 0.0901934
369 1 0.175488 0.824927 0.128237
421 1 0.294838 0.80651 0.161932
84 1 0.488441 0.764881 0.104323
203 1 0.676058 0.810934 0.0943757
153 1 0.0740502 0.891395 0.150544
358 1 0.518386 0.887695 0.0947705
347 1 0.967933 0.862721 0.107346
308 1 0.360349 0.957652 0.137245
86 1 0.716864 0.946059 0.102475
82 1 0.0858974 0.0416855 0.215039
93 1 0.417798 0.062501 0.204793
249 1 0.969142 0.0790785 0.180451
52 1 0.539736 0.102046 0.174402
50 1 0.860718 0.104095 0.218402
362 1 0.126893 0.195691 0.178206
102 1 0.27343 0.195134 0.191552
9 1 0.460227 0.167704 0.239707
426 1 0.63626 0.218802 0.172068
29 1 0.127755 0.317471 0.225647
486 1 0.311208 0.327169 0.204501
423 1 0.446547 0.2842 0.246076
400 1 0.763697 0.275117 0.214152
325 1 0.439261 0.406136 0.202276
145 1 0.558462 0.34131 0.242979
417 1 0.605548 0.464674 0.235746
438 1 0.731892 0.421921 0.199891
492 1 0.837734 0.487832 0.195389
263 1 0.28768 0.581777 0.211192
348 1 0.0496539 0.656373 0.225497
232 1 0.133925 0.593615 0.17284
17 1 0.419261 0.619137 0.19693
287 1 0.53821 0.597547 0.24942
167 1 0.730045 0.586673 0.221044
469 1 0.91076 0.647565 0.206748
357 1 0.201289 0.691346 0.172446
301 1 0.359397 0.724361 0.211268
141 1 0.482477 0.747265 0.236061
71 1 0.732884 0.745398 0.23394
103 1 0.0229883 0.772889 0.17985
251 1 0.135945 0.760318 0.245413
393 1 0.408974 0.831609 0.190433
101 1 0.622129 0.781163 0.213096
389 1 0.890303 0.803952 0.190749
338 1 0.167796 0.899811 0.230933
7 1 0.287785 0.911798 0.219797
67 1 0.536229 0.866493 0.230456
307 1 0.694499 0.879738 0.203128
447 1 0.811146 0.896897 0.169315
105 1 0.515569 0.979253 0.19022
61 1 0.627223 0.993238 0.217758
247 1 0.895587 0.976928 0.184146
30 1 0.999161 0.937018 0.237625
452 1 0.00868505 0.0325187 0.31663
174 1 0.188528 0.00551627 0.320388
332 1 0.314341 0.0204899 0.260063
374 1 0.528367 0.0323714 0.301403
331 1 0.877984 0.00237538 0.316734
70 1 0.230864 0.106799 0.269309
367 1 0.341644 0.160195 0.283144
271 1 0.733111 0.102361 0.275681
254 1 0.0380629 0.22086 0.269593
382 1 0.144908 0.176269 0.324501
156 1 0.583998 0.22132 0.27992
199 1 0.909412 0.221456 0.26631
143 1 0.252989 0.264595 0.297458
386 1 0.65832 0.306857 0.318393
118 1 0.226254 0.39859 0.260816
224 1 0.427777 0.413187 0.321243
413 1 0.835179 0.370355 0.254328
151 1 0.967128 0.348477 0.270475
136 1 0.0616438 0.422302 0.286829
342 1 0.341552 0.489177 0.260065
456 1 0.802167 0.474282 0.30998
450 1 0.940484 0.465288 0.288313
119 1 0.071044 0.53017 0.262371
122 1 0.441663 0.543892 0.31192
272 1 0.214257 0.657373 0.288306
312 1 0.416982 0.664237 0.320711
59 1 0.642472 0.660859 0.257052
207 1 0.820249 0.618332 0.328916
306 1 0.847439 0.731382 0.290337
8 1 0.994964 0.707492 0.329368
483 1 0.270102 0.766843 0.294226
392 1 0.454616 0.827969 0.327832
316 1 0.0424882 0.839756 0.283538
58 1 0.643766 0.838064 0.323655
497 1 0.782622 0.848713 0.279825
186 1 0.929939 0.871182 0.31028
449 1 0.40977 0.938805 0.259273
155 1 0.776296 0.975411 0.258902
260 1 0.461456 0.00791809 0.416617
45 1 0.649416 0.00293817 0.347355
215 1 0.25234 0.149029 0.379031
467 1 0.418549 0.0876859 0.343396
378 1 0.581439 0.124329 0.359755
53 1 0.715285 0.144702 0.396114
352 1 0.852093 0.148004 0.345892
291 1 0.975971 0.154138 0.356302
281 1 0.385514 0.198877 0.401163
360 1 0.0459444 0.316751 0.356169
322 1 0.160436 0.294698 0.39546
425 1 0.354948 0.311309 0.340853
363 1 0.51721 0.279789 0.369856
407 1 0.782024 0.272519 0.368445
466 1 0.922636 0.266114 0.396962
138 1 0.527249 0.388033 0.416271
328 1 0.0529511 0.495804 0.377375
190 1 0.150618 0.422844 0.374064
333 1 0.297661 0.425245 0.378575
498 1 0.692203 0.425767 0.362728
57 1 0.912126 0.493716 0.404204
299 1 0.212174 0.535935 0.349207
80 1 0.560819 0.511118 0.345452
173 1 0.713715 0.556149 0.363143
275 1 0.972997 0.582891 0.345784
177 1 0.110268 0.598436 0.36396
98 1 0.322371 0.601847 0.350714
458 1 0.605124 0.627521 0.364814
127 1 0.148039 0.73299 0.359322
111 1 0.362442 0.708413 0.415205
310 1 0.5567 0.741164 0.33802
142 1 0.741849 0.71088 0.368759
68 1 0.00895075 0.797121 0.405545
63 1 0.342322 0.829787 0.381911
12 1 0.829007 0.806125 0.386737
21 1 0.177737 0.845877 0.340205
134 1 0.54645 0.916463 0.354492
148 1 0.0961516 0.936484 0.333487
189 1 0.228448 0.925661 0.415086
132 1 0.360212 0.955757 0.374076
313 1 0.741571 0.926199 0.369733
239 1 0.986562 0.931465 0.387253
488 1 0.0479305 0.0161792 0.457076
88 1 0.196186 0.0420441 0.447482
160 1 0.343976 0.06353 0.430543
130 1 0.641795 0.00669201 0.470144
55 1 0.80137 0.0507379 0.423681
395 1 0.925069 0.0516605 0.418478
44 1 0.0981149 0.140768 0.433444
85 1 0.495553 0.161478 0.457217
335 1 0.934766 0.165357 0.483297
191 1 0.0396594 0.245017 0.45417
293 1 0.180851 0.209407 0.488633
65 1 0.611985 0.226028 0.429022
248 1 0.815086 0.174424 0.460995
476 1 0.271908 0.290485 0.433605
436 1 0.423354 0.321422 0.448377
28 1 0.0763487 0.399344 0.489505
5 1 0.199265 0.376585 0.482005
23 1 0.642881 0.343767 0.434552
213 1 0.746013 0.380635 0.478471
56 1 0.95747 0.375187 0.46623
262 1 0.429993 0.462712 0.431581
318 1 0.627293 0.497349 0.447979
158 1 0.769887 0.498526 0.455636
183 1 0.182915 0.545797 0.480138
26 1 0.306582 0.519601 0.45987
464 1 0.518394 0.536488 0.480463
266 1 0.238548 0.643579 0.428187
146 1 0.414135 0.588458 0.42443
14 1 0.665571 0.630429 0.48446
468 1 0.850756 0.616734 0.449685
41 1 0.961895 0.589933 0.482296
216 1 0.0552849 0.680678 0.432957
192 1 0.503452 0.673793 0.421221
264 1 0.818847 0.736875 0.491766
223 1 0.926937 0.707771 0.423007
43 1 0.125281 0.781532 0.479163
286 1 0.235794 0.782671 0.428024
234 1 0.324727 0.818178 0.496459
429 1 0.61558 0.752025 0.441109
461 1 0.718625 0.820353 0.451565
210 1 0.0876174 0.897297 0.450259
129 1 0.457796 0.875127 0.44843
403 1 0.585776 0.880178 0.472152
72 1 0.858579 0.915803 0.433221
107 1 0.359633 0.942666 0.498426
297 1 0.160407 0.00375037 0.557485
162 1 0.532027 0.000508448 0.514499
304 1 0.725796 0.0771653 0.512812
246 1 0.937502 0.0586989 0.544614
435 1 0.0500103 0.157295 0.551885
475 1 0.264241 0.113584 0.51749
176 1 0.383113 0.125635 0.540455
169 1 0.591988 0.112756 0.507974
414 1 0.853317 0.201655 0.579856
473 1 0.121767 0.304602 0.54305
261 1 0.320327 0.281431 0.551979
225 1 0.45553 0.262851 0.547985
361 1 0.587547 0.317139 0.546217
117 1 0.726059 0.258194 0.500662
278 1 0.852338 0.316997 0.507701
404 1 0.978753 0.254622 0.564707
238 1 0.32049 0.401233 0.502596
94 1 0.460349 0.410869 0.54157
311 1 0.580505 0.438029 0.564592
229 1 0.708574 0.459571 0.578437
110 1 0.836067 0.44469 0.546416
242 1 0.981708 0.480073 0.536739
171 1 0.268405 0.505017 0.578109
405 1 0.398168 0.507873 0.535622
482 1 0.885669 0.574206 0.580002
196 1 0.0748079 0.589733 0.577337
185 1 0.175148 0.652487 0.536305
231 1 0.316476 0.619797 0.52801
422 1 0.759595 0.588004 0.542309
114 1 0.0654179 0.710012 0.566491
391 1 0.260191 0.73696 0.560212
257 1 0.445986 0.733705 0.509227
184 1 0.560619 0.694826 0.529115
154 1 0.701549 0.735216 0.554292
197 1 0.915984 0.738701 0.579146
418 1 0.993216 0.825979 0.526169
4 1 0.205353 0.870951 0.540254
433 1 0.488158 0.869698 0.569652
292 1 0.796021 0.843762 0.570911
124 1 0.923535 0.916327 0.543673
317 1 0.0411501 0.959715 0.56777
346 1 0.604382 0.924442 0.578541
480 1 0.717586 0.923937 0.518853
237 1 0.818061 0.983404 0.524043
97 1 0.270895 0.0550931 0.625688
465 1 0.385101 0.00923412 0.592733
439 1 0.60914 0.0510855 0.613243
444 1 0.818988 0.0749604 0.602327
226 1 0.160183 0.124815 0.593608
432 1 0.495264 0.0998079 0.60566
279 1 0.69941 0.114385 0.661867
321 1 0.965632 0.152132 0.646068
49 1 0.160576 0.240262 0.643175
265 1 0.303037 0.168197 0.647152
282 1 0.579201 0.181769 0.61325
27 1 0.706807 0.293581 0.608314
181 1 0.0520464 0.36364 0.625416
345 1 0.185439 0.368489 0.650787
131 1 0.312821 0.379868 0.626827
179 1 0.499496 0.370493 0.657817
168 1 0.803548 0.371938 0.636043
284 1 0.935023 0.41281 0.623508
60 1 0.145424 0.478021 0.585067
140 1 0.186102 0.582427 0.639801
442 1 0.508343 0.519814 0.620636
280 1 0.639557 0.568206 0.599375
344 1 0.437979 0.644433 0.586241
410 1 0.36076 0.734758 0.636082
494 1 0.59529 0.675863 0.651939
15 1 0.817931 0.673651 0.624503
479 1 0.103993 0.817766 0.617659
305 1 0.483305 0.75228 0.635987
47 1 0.599143 0.797229 0.585897
202 1 0.371583 0.872451 0.618785
139 1 0.682164 0.854677 0.643075
11 1 0.131913 0.944073 0.64948
40 1 0.253358 0.939852 0.64152
428 1 0.489914 0.98215 0.628958
128 1 0.750212 0.957203 0.637048
214 1 0.186278 0.0651267 0.709084
152 1 0.5364 0.0481883 0.73864
399 1 0.788404 0.0137716 0.737645
283 1 0.965607 0.00933472 0.666984
302 1 0.0760137 0.116634 0.689144
390 1 0.404239 0.0939728 0.689839
1 1 0.811448 0.130056 0.704898
394 1 0.785561 0.24701 0.691818
375 1 0.110422 0.267854 0.749815
38 1 0.238974 0.262088 0.732269
459 1 0.378072 0.287915 0.679393
490 1 0.500278 0.251957 0.688173
457 1 0.606715 0.321377 0.712402
219 1 0.882126 0.322587 0.723824
376 1 0.990203 0.264391 0.691017
401 1 0.400163 0.393004 0.725644
303 1 0.720969 0.350537 0.721004
443 1 0.0420923 0.471251 0.682536
463 1 0.184728 0.480708 0.713336
451 1 0.530551 0.449618 0.743147
91 1 0.655374 0.459627 0.699652
255 1 0.796594 0.490974 0.67423
16 1 0.390924 0.503614 0.677368
175 1 0.67004 0.583262 0.720621
409 1 0.910199 0.51343 0.690112
135 1 0.0491753 0.639876 0.6826
187 1 0.37709 0.60872 0.736094
276 1 0.534918 0.593855 0.725179
277 1 0.793918 0.617746 0.744621
324 1 0.928588 0.654233 0.726557
329 1 0.246894 0.695853 0.674835
349 1 0.447833 0.708703 0.742049
419 1 0.709651 0.69265 0.686857
334 1 0.0669862 0.763703 0.722047
460 1 0.560855 0.751865 0.74426
137 1 0.796776 0.779426 0.674436
339 1 0.951842 0.768961 0.688689
25 1 0.0218285 0.89149 0.669624
290 1 0.220796 0.838031 0.68818
453 1 0.361412 0.854246 0.737587
354 1 0.52931 0.865686 0.688528
106 1 0.879487 0.869941 0.676516
24 1 0.412814 0.972624 0.718056
359 1 0.612137 0.960872 0.694486
445 1 0.2983 0.0402927 0.760906
178 1 0.417636 0.0645518 0.817737
315 1 0.641313 0.00362396 0.802109
398 1 0.868732 0.0611601 0.819299
343 1 0.999835 0.0770369 0.775262
402 1 0.177813 0.16471 0.788256
478 1 0.299789 0.149947 0.822708
64 1 0.650571 0.122564 0.771243
170 1 0.921953 0.163599 0.758124
48 1 0.0383768 0.182483 0.79497
446 1 0.424565 0.184593 0.765215
314 1 0.545306 0.226416 0.803931
471 1 0.347612 0.268129 0.809302
90 1 0.670902 0.276928 0.809176
385 1 0.0259607 0.371028 0.757531
74 1 0.175902 0.369483 0.787084
233 1 0.503716 0.340828 0.783256
411 1 0.627399 0.401302 0.824216
408 1 0.801109 0.338483 0.811217
205 1 0.293376 0.416744 0.781625
180 1 0.80373 0.468189 0.800895
484 1 0.907501 0.419699 0.777343
294 1 0.0399992 0.541761 0.790422
243 1 0.167139 0.510432 0.832414
481 1 0.443213 0.508401 0.794985
430 1 0.563562 0.543978 0.832039
330 1 0.693407 0.522479 0.827495
78 1 0.165025 0.613591 0.755555
499 1 0.266966 0.650647 0.820844
66 1 0.590678 0.664815 0.81395
406 1 0.032927 0.673326 0.797483
366 1 0.333338 0.744897 0.766784
13 1 0.731288 0.73473 0.814315
116 1 0.882225 0.744245 0.794425
441 1 0.181638 0.755274 0.765126
373 1 0.459223 0.826402 0.801754
397 1 0.114949 0.864141 0.776445
487 1 0.269751 0.857801 0.815299
323 1 0.615253 0.850724 0.784576
416 1 0.72007 0.909896 0.808471
123 1 0.817025 0.845749 0.787099
163 1 0.953125 0.842788 0.783354
96 1 0.0997981 0.988119 0.766927
20 1 0.391175 0.933211 0.832989
34 1 0.508405 0.93924 0.792665
182 1 0.899253 0.960602 0.760513
133 1 0.173092 0.0512021 0.844302
108 1 0.758095 0.0184373 0.866335
356 1 0.437375 0.144996 0.910972
289 1 0.537774 0.0882365 0.855019
370 1 0.755475 0.166521 0.839543
381 1 0.98657 0.0883418 0.90041
474 1 0.163255 0.188449 0.913769
209 1 0.586863 0.179991 0.915873
218 1 0.998897 0.208586 0.916174
285 1 0.0419264 0.304602 0.852691
296 1 0.23071 0.282212 0.854577
472 1 0.45938 0.273755 0.886408
350 1 0.927611 0.308192 0.8339
274 1 0.400239 0.40237 0.85425
424 1 0.737447 0.411599 0.886401
355 1 0.0165139 0.443515 0.875432
500 1 0.221193 0.428728 0.893032
434 1 0.517099 0.434928 0.870356
3 1 0.322064 0.532632 0.857185
454 1 0.457655 0.53899 0.911347
491 1 0.932497 0.528478 0.898386
220 1 0.151104 0.64877 0.872624
383 1 0.390831 0.652836 0.845049
99 1 0.693697 0.644097 0.884438
37 1 0.828182 0.58684 0.871676
42 1 0.942651 0.666065 0.883457
33 1 0.493249 0.717651 0.869716
6 1 0.810706 0.716554 0.910784
77 1 0.0490696 0.785377 0.842315
164 1 0.240436 0.764018 0.895137
252 1 0.609158 0.774889 0.890531
166 1 0.745851 0.830776 0.902571
353 1 0.520863 0.87163 0.8973
125 1 0.637373 0.909514 0.891111
412 1 0.955897 0.84036 0.902222
288 1 0.00607918 0.97631 0.841887
256 1 0.267199 0.972573 0.852914
75 1 0.465451 0.995519 0.905438
365 1 0.849158 0.934958 0.86737
121 1 0.352181 0.0676456 0.961345
161 1 0.534237 0.0778212 0.978483
236 1 0.646054 0.0319197 0.93632
150 1 0.901287 0.014734 0.953806
388 1 0.0879217 0.101371 0.974896
269 1 0.702877 0.146041 0.951399
144 1 0.842521 0.130618 0.917793
79 1 0.310244 0.183502 0.98288
39 1 0.091343 0.279137 0.968255
206 1 0.216322 0.306491 0.995655
195 1 0.345254 0.282797 0.93575
18 1 0.550813 0.332423 0.929929
470 1 0.674599 0.314482 0.92849
300 1 0.830768 0.251015 0.919016
112 1 0.104216 0.403583 0.945136
253 1 0.340272 0.403653 0.957588
267 1 0.781282 0.338941 0.993915
95 1 0.88315 0.385119 0.932895
377 1 0.996853 0.368729 0.985551
368 1 0.631397 0.445749 0.941355
89 1 0.836381 0.492364 0.972521
230 1 0.067884 0.545192 0.932326
326 1 0.200116 0.529273 0.956968
493 1 0.360065 0.524218 0.981425
126 1 0.651617 0.565003 0.972136
159 1 0.0418588 0.659381 0.950513
35 1 0.190972 0.658602 0.995763
87 1 0.304075 0.623628 0.93284
69 1 0.568131 0.63455 0.936059
427 1 0.357473 0.748592 0.920329
270 1 0.41141 0.671887 0.991785
340 1 0.688353 0.749777 0.97833
109 1 0.113832 0.763276 0.949897
244 1 0.474928 0.788832 0.982025
309 1 0.881061 0.793268 0.999514
495 1 0.190378 0.867506 0.938809
208 1 0.338163 0.891414 0.933676
201 1 0.590921 0.833919 0.992444
104 1 0.698726 0.883131 0.996365
2 1 0.0835505 0.934247 0.921276
235 1 0.78487 0.976836 0.985559
