ITEM: TIMESTEP
0
ITEM: NUMBER OF ATOMS
360
ITEM: BOX BOUNDS pp pp pp
0.0000000000000000e+00 6.6943295008216896e+00
0.0000000000000000e+00 6.6943295008216896e+00
0.0000000000000000e+00 6.6943295008216896e+00
ITEM: ATOMS id type xs ys zs
279 1 0.0862763 0.14831 0.129068
8 1 0.228355 0.234239 0.0861976
40 1 0.16893 0.222524 0.230453
334 2 0.0161827 0.0628775 0.0604314
352 2 0.114598 0.0869012 0.243347
101 1 0.226809 0.0800239 0.18511
103 1 0.249385 0.0901454 0.0239643
64 1 0.379649 0.189156 0.124303
305 2 0.293035 0.2023 0.225648
357 2 0.487068 0.15374 0.198582
82 1 0.37325 0.0730182 0.234632
89 1 0.373058 0.00279214 0.0957364
133 1 0.498271 0.243354 0.0513059
17 1 0.515268 0.0944819 0.0804987
28 1 0.663429 0.226059 0.0383173
113 1 0.624674 0.137979 0.179321
183 1 0.675476 0.0527026 0.0537292
191 1 0.775632 0.150834 0.152558
62 1 0.938247 0.120787 0.158286
299 2 0.848804 0.039889 0.198627
139 1 0.839781 0.0817475 0.0250116
30 1 0.993839 0.22937 0.0165035
345 2 0.127151 0.259815 0.0131169
138 1 0.09193 0.451277 0.131922
213 1 0.0635265 0.303549 0.129171
315 2 0.182826 0.340859 0.145371
27 1 0.239652 0.461142 0.116644
182 1 0.293857 0.333806 0.197407
192 1 0.374981 0.329902 0.0315317
327 2 0.428666 0.322916 0.158197
120 1 0.398217 0.447962 0.13376
287 1 0.485053 0.454939 0.00866431
338 2 0.554506 0.408829 0.218938
99 1 0.545853 0.278623 0.20399
5 1 0.611926 0.379441 0.0885131
170 1 0.673881 0.458905 0.212547
281 1 0.708952 0.295793 0.178817
56 1 0.678507 0.497624 0.0187173
173 1 0.839012 0.265243 0.05409
277 1 0.771746 0.407162 0.100756
68 1 0.891923 0.263345 0.198907
247 1 0.925063 0.399358 0.0823833
118 1 0.828427 0.420756 0.248034
63 1 0.218887 0.154233 0.472088
236 1 0.016735 0.211636 0.252438
61 1 0.105144 0.152547 0.357066
93 1 0.0630746 0.0403212 0.45588
273 1 0.254352 0.126738 0.332571
267 1 0.375044 0.177629 0.412128
303 2 0.446501 0.101126 0.335385
249 1 0.400001 0.246222 0.277037
141 1 0.358718 0.00231527 0.36899
158 1 0.517747 0.164403 0.471653
198 1 0.511978 0.0215023 0.421686
268 1 0.712741 0.0225997 0.250807
91 1 0.540895 0.0415406 0.257151
47 1 0.544717 0.181811 0.320434
127 1 0.651856 0.0912273 0.38763
42 1 0.702299 0.214998 0.305318
271 1 0.993249 0.0574937 0.294606
309 2 0.797554 0.0657651 0.407033
96 1 0.917127 0.0539483 0.43807
112 1 0.803221 0.195532 0.460363
51 1 0.941902 0.206342 0.402773
161 1 0.852006 0.127226 0.301013
195 1 0.146822 0.384546 0.257718
180 1 0.248096 0.272466 0.354903
186 1 0.0704283 0.459976 0.375708
16 1 0.0693614 0.308109 0.38681
274 1 0.22647 0.413921 0.39823
308 2 0.0588859 0.481573 0.256076
59 1 0.438925 0.393029 0.275938
199 1 0.296547 0.479042 0.259206
157 1 0.379852 0.47274 0.399278
298 2 0.330204 0.370493 0.332823
24 1 0.491852 0.331924 0.415902
18 1 0.341387 0.331644 0.454577
108 1 0.662663 0.257445 0.450972
272 1 0.564541 0.455475 0.3403
188 1 0.699987 0.370343 0.341117
356 2 0.588039 0.309425 0.32671
175 1 0.642715 0.425464 0.468282
197 1 0.782859 0.364419 0.476033
148 1 0.987199 0.377569 0.257035
71 1 0.942141 0.389447 0.414426
85 1 0.837805 0.296338 0.343429
333 2 0.817341 0.423522 0.374744
276 1 0.0860724 0.0729424 0.689417
174 1 0.167922 0.209851 0.658416
330 2 0.114599 0.0996519 0.568718
285 1 0.0575658 0.197023 0.508223
115 1 0.244808 0.0669766 0.615716
219 1 0.000878036 0.200041 0.657791
227 1 0.311081 0.203371 0.575782
194 1 0.454348 0.188885 0.629029
25 1 0.30458 0.155755 0.720784
58 1 0.399887 0.0424269 0.67877
111 1 0.389494 0.0460513 0.52357
322 2 0.525989 0.0508968 0.723262
54 1 0.608083 0.206377 0.658424
52 1 0.669839 0.132811 0.541885
90 1 0.550666 0.0600574 0.599855
251 1 0.682035 0.0347171 0.666934
306 2 0.729679 0.154766 0.676523
69 1 0.79507 0.0487362 0.533952
181 1 0.850085 0.157292 0.639515
6 1 0.979137 0.0535947 0.585734
311 2 0.946886 0.0935873 0.717738
329 2 0.917447 0.148972 0.522262
224 1 0.843415 0.00903199 0.672404
44 1 0.119128 0.363631 0.697842
341 2 0.180766 0.409083 0.597465
335 2 0.0798204 0.289152 0.598692
275 1 0.189919 0.310694 0.515171
38 1 0.0533086 0.390317 0.530264
143 1 0.158884 0.496466 0.515334
354 2 0.433899 0.250778 0.513004
266 1 0.275294 0.352289 0.659427
235 1 0.309908 0.444716 0.547094
142 1 0.414639 0.340635 0.601202
264 1 0.366034 0.471292 0.718185
159 1 0.399014 0.30983 0.749965
1 1 0.487724 0.447377 0.516536
307 2 0.602837 0.456551 0.588665
134 1 0.744473 0.262902 0.594179
297 2 0.516545 0.304863 0.676598
160 1 0.504438 0.433506 0.679388
13 1 0.565569 0.321676 0.558047
242 1 0.642149 0.357983 0.679745
301 2 0.706948 0.376943 0.569761
67 1 0.757847 0.268091 0.743116
238 1 0.917868 0.296967 0.534563
325 2 0.869105 0.280733 0.652649
190 1 0.813861 0.405693 0.646781
97 1 0.966058 0.371252 0.663478
296 2 0.909859 0.419884 0.534114
73 1 0.110403 0.113525 0.961882
177 1 0.17872 0.116907 0.81756
336 2 0.10238 0.238786 0.762245
29 1 0.0187921 0.134818 0.813379
265 1 0.106241 0.248851 0.886228
253 1 0.0812238 0.000160808 0.851928
261 1 0.397289 0.135202 0.98586
203 1 0.261289 0.220066 0.92558
50 1 0.319138 0.0841234 0.857561
321 2 0.341427 0.209876 0.828175
45 1 0.447302 0.153622 0.782243
290 2 0.474057 0.0299566 0.965013
250 1 0.553188 0.160359 0.934899
229 1 0.619521 0.105425 0.798076
283 1 0.708125 0.1143 0.919924
223 1 0.694466 0.249596 0.876834
328 2 0.968693 0.229378 0.885788
230 1 0.968876 0.0472862 0.949819
220 1 0.785974 0.101243 0.781506
288 1 0.841771 0.191436 0.91469
304 2 0.846657 0.063066 0.899406
123 1 0.900249 0.226134 0.776939
323 2 0.0355868 0.450104 0.762685
240 1 0.0611729 0.372396 0.989299
150 1 0.219543 0.289628 0.795864
248 1 0.14394 0.406613 0.85061
37 1 0.0133665 0.324529 0.801757
228 1 0.0121644 0.477893 0.892034
241 1 0.210418 0.354366 0.991008
316 2 0.271839 0.422686 0.78032
49 1 0.316105 0.362017 0.880452
278 1 0.431449 0.263325 0.903039
2 1 0.480038 0.423998 0.836599
280 1 0.327716 0.47325 0.983043
166 1 0.572064 0.334513 0.936225
196 1 0.737277 0.4065 0.799628
342 2 0.608386 0.388785 0.812069
234 1 0.555429 0.273967 0.791317
34 1 0.861336 0.488579 0.9686
79 1 0.921756 0.345131 0.946625
147 1 0.753078 0.370467 0.950333
317 2 0.821873 0.313903 0.858226
282 1 0.888238 0.412421 0.805241
23 1 0.0611291 0.611699 0.154584
295 2 0.136004 0.715907 0.145982
216 1 0.204301 0.620553 0.0866984
131 1 0.160978 0.536293 0.23784
104 1 0.0694288 0.700233 0.0190044
359 2 0.198855 0.748173 0.0241592
176 1 0.322305 0.631084 0.195559
255 1 0.42096 0.594243 0.0791828
310 2 0.40884 0.716709 0.130672
128 1 0.319509 0.72153 0.0344503
36 1 0.56183 0.61648 0.00554552
168 1 0.550015 0.520414 0.134572
144 1 0.504945 0.668267 0.183361
11 1 0.670894 0.636518 0.125542
300 2 0.580055 0.726465 0.0909329
46 1 0.999698 0.527669 0.0312716
164 1 0.936331 0.53135 0.186845
130 1 0.923919 0.661163 0.0783854
153 1 0.80944 0.554365 0.0933461
358 2 0.797406 0.705087 0.121623
163 1 0.0167144 0.759238 0.17206
187 1 0.133072 0.839119 0.10645
105 1 0.0888084 0.964269 0.00449332
331 2 0.182058 0.997956 0.0942269
14 1 0.0784428 0.990266 0.168452
245 1 0.263632 0.921991 0.181388
87 1 0.255278 0.882933 0.016278
171 1 0.263541 0.772556 0.168029
32 1 0.384783 0.841553 0.111947
269 1 0.424232 0.926245 0.247069
226 1 0.490875 0.761403 0.0064456
318 2 0.49609 0.983005 0.152119
43 1 0.52699 0.929685 0.0406328
206 1 0.532652 0.825302 0.157629
284 1 0.629453 0.932363 0.158325
116 1 0.698117 0.786839 0.143372
204 1 0.684984 0.895041 0.00222457
152 1 0.938006 0.970799 0.117678
114 1 0.989607 0.836961 0.0353171
169 1 0.8655 0.824008 0.182817
145 1 0.820698 0.799934 0.0313378
211 1 0.787529 0.950656 0.139054
119 1 0.151468 0.680827 0.267079
3 1 0.184689 0.580403 0.388129
189 1 0.0427921 0.60369 0.329889
263 1 0.0647656 0.675193 0.464995
117 1 0.204751 0.746526 0.402183
178 1 0.447689 0.545203 0.251727
360 2 0.273219 0.535448 0.460038
237 1 0.33901 0.620666 0.348867
339 2 0.476376 0.548411 0.392543
193 1 0.488666 0.670247 0.334231
353 2 0.278305 0.727088 0.293081
156 1 0.417357 0.600923 0.494955
347 2 0.748164 0.616516 0.47119
124 1 0.713603 0.532492 0.379113
35 1 0.625793 0.603685 0.272642
55 1 0.66729 0.684219 0.397966
225 1 0.589997 0.572219 0.453539
244 1 0.743966 0.711967 0.269465
98 1 0.521611 0.721132 0.484554
72 1 0.790124 0.568421 0.250588
215 1 0.836187 0.513992 0.467554
92 1 0.913632 0.683952 0.25533
184 1 0.91896 0.51888 0.332393
121 1 0.833754 0.653621 0.384948
302 2 0.953124 0.669015 0.402164
106 1 0.989404 0.537306 0.490473
167 1 0.147229 0.989773 0.331802
84 1 0.224061 0.989809 0.465536
41 1 0.150118 0.839396 0.255196
15 1 0.0308755 0.772351 0.342372
185 1 0.108674 0.847357 0.46338
320 2 0.237312 0.863665 0.456795
340 2 0.263788 0.994193 0.287506
74 1 0.368343 0.751053 0.438851
221 1 0.397296 0.781807 0.269837
146 1 0.290873 0.869517 0.334272
21 1 0.487518 0.849314 0.3802
76 1 0.360399 0.899934 0.485613
154 1 0.735683 0.869304 0.272993
324 2 0.554919 0.901802 0.259083
110 1 0.595699 0.779014 0.292069
75 1 0.623464 0.927425 0.354629
351 2 0.713348 0.800049 0.37368
20 1 0.661673 0.832387 0.480116
209 1 0.647471 0.986508 0.499297
66 1 0.968378 0.908338 0.413396
80 1 0.983374 0.891055 0.252702
246 1 0.93124 0.765085 0.479601
137 1 0.776634 0.923748 0.435632
218 1 0.863252 0.809482 0.33772
31 1 0.852788 0.95811 0.292184
260 1 0.782043 0.755502 0.486795
136 1 0.141922 0.639264 0.605291
312 2 0.0622373 0.64659 0.714906
122 1 0.222031 0.505873 0.678754
294 2 0.248137 0.694354 0.640387
77 1 0.0613237 0.503332 0.643352
70 1 0.349011 0.609388 0.645457
293 2 0.468617 0.659987 0.614384
252 1 0.431211 0.71388 0.730668
262 1 0.270159 0.650192 0.511467
349 2 0.433949 0.512238 0.60873
48 1 0.552325 0.565103 0.6113
95 1 0.655918 0.683371 0.555546
132 1 0.583961 0.678812 0.711974
109 1 0.74114 0.669736 0.675198
232 1 0.628135 0.513166 0.736352
179 1 0.71751 0.526151 0.573254
257 1 0.912131 0.517421 0.628308
7 1 0.993526 0.672981 0.60252
125 1 0.843417 0.636705 0.55875
332 2 0.873024 0.657609 0.680768
151 1 0.801869 0.53853 0.737699
26 1 0.962748 0.734844 0.736134
81 1 0.118459 0.761466 0.695418
212 1 0.134009 0.947677 0.598649
4 1 0.0326843 0.820489 0.587095
217 1 0.227021 0.802881 0.566859
291 2 0.0244903 0.946786 0.531974
65 1 0.406885 0.785658 0.592907
162 1 0.306859 0.923885 0.631158
259 1 0.293041 0.796287 0.717621
100 1 0.462389 0.899537 0.704809
22 1 0.500323 0.910806 0.546714
350 2 0.719477 0.787705 0.600855
326 2 0.598247 0.943859 0.621909
140 1 0.576049 0.813087 0.633064
165 1 0.741977 0.908501 0.588375
314 2 0.740543 0.942056 0.725698
39 1 0.8512 0.781215 0.624641
126 1 0.987958 0.940137 0.684118
243 1 0.89491 0.919712 0.551892
202 1 0.213326 0.663631 0.767161
289 2 0.064612 0.593227 0.941034
254 1 0.20682 0.656013 0.93196
222 1 0.0631254 0.695818 0.854025
107 1 0.117041 0.550365 0.788317
83 1 0.161566 0.516148 0.983573
270 1 0.477837 0.566095 0.761808
231 1 0.264261 0.526935 0.851809
344 2 0.307208 0.601202 0.993346
135 1 0.427187 0.559612 0.904355
258 1 0.336888 0.69075 0.859213
313 2 0.327391 0.597724 0.765953
355 2 0.414632 0.674952 0.960653
233 1 0.669776 0.673062 0.845036
155 1 0.500402 0.69459 0.862825
12 1 0.591457 0.509864 0.890275
94 1 0.66057 0.740584 0.992596
88 1 0.751454 0.550817 0.879383
214 1 0.966006 0.573468 0.764644
208 1 0.941558 0.634913 0.921497
239 1 0.780371 0.656351 0.987923
346 2 0.878886 0.535717 0.853885
33 1 0.828243 0.68769 0.817834
149 1 0.17534 0.912254 0.752829
9 1 0.0405901 0.847834 0.804523
343 2 0.16983 0.794014 0.801087
53 1 0.120657 0.831406 0.936066
207 1 0.222278 0.980632 0.903368
337 2 0.379392 0.826968 0.981204
210 1 0.372005 0.966541 0.947268
19 1 0.271485 0.827139 0.880781
86 1 0.332588 0.953818 0.779383
200 1 0.450653 0.83633 0.860227
10 1 0.476451 0.997563 0.829872
172 1 0.605068 0.929615 0.752333
205 1 0.603372 0.988489 0.904595
60 1 0.712474 0.811137 0.752539
57 1 0.603782 0.829986 0.875963
348 2 0.536826 0.799426 0.772184
286 1 0.921171 0.992662 0.802679
129 1 0.929449 0.786128 0.903114
256 1 0.869761 0.851894 0.763554
201 1 0.876547 0.927262 0.962536
319 2 0.995794 0.92278 0.920063
102 1 0.763222 0.810403 0.890092
78 1 0.765052 0.971727 0.850851
292 2 0.770061 0.984463 0.981578
ITEM: TIMESTEP
10000000
ITEM: NUMBER OF ATOMS
360
ITEM: BOX BOUNDS pp pp pp
0.0000000000000000e+00 6.6943295008216896e+00
0.0000000000000000e+00 6.6943295008216896e+00
0.0000000000000000e+00 6.6943295008216896e+00
ITEM: ATOMS id type xs ys zs
213 1 0.0341796 0.134548 0.127842
101 1 0.183783 0.130547 0.066163
13 1 0.230855 0.0418144 0.20154
353 2 0.229065 0.176971 0.179254
261 1 0.339935 0.12 0.147951
342 2 0.410522 0.230428 0.131695
43 1 0.505898 0.146604 0.110829
310 2 0.628978 0.173587 0.154018
284 1 0.751371 0.014702 0.147292
62 1 0.738216 0.240384 0.135566
250 1 0.660531 0.140804 0.0384758
281 1 0.547627 0.223608 0.24547
42 1 0.599029 0.0544431 0.192983
183 1 0.913709 0.0527707 0.172484
296 2 0.815551 0.139206 0.206358
99 1 0.810927 0.118307 0.061614
195 1 0.907725 0.21405 0.162037
230 1 0.985885 0.0411808 0.0237698
315 2 0.935811 0.159155 0.0419581
138 1 0.137861 0.264587 0.12814
173 1 0.0458314 0.41167 0.13741
241 1 0.222565 0.402584 0.10931
291 2 0.129647 0.36309 0.212802
29 1 0.00343385 0.28764 0.0431462
192 1 0.203348 0.45448 0.271207
282 1 0.0142017 0.293395 0.239072
280 1 0.28559 0.261788 0.0833055
225 1 0.406209 0.278273 0.238508
103 1 0.258834 0.305499 0.239783
120 1 0.420524 0.350242 0.0914637
178 1 0.34652 0.431925 0.228272
118 1 0.646246 0.497954 0.236742
273 1 0.0778862 0.108353 0.489358
170 1 0.505268 0.393499 0.220156
47 1 0.582318 0.301029 0.117481
36 1 0.571629 0.458984 0.083398
68 1 0.7234 0.389994 0.114983
333 2 0.784788 0.391893 0.00795866
329 2 0.0614649 0.0194027 0.386071
122 1 0.89162 0.384296 0.107653
236 1 0.81882 0.334919 0.239988
299 2 0.930238 0.403337 0.231604
144 1 0.12774 0.174452 0.269526
152 1 0.0633608 0.0238162 0.254192
64 1 0.187605 0.21092 0.425561
161 1 0.186664 0.0654705 0.367366
347 2 0.56461 0.220024 0.00571367
51 1 0.0243131 0.232033 0.389393
283 1 0.680214 0.286394 -0.000130901
146 1 0.446325 0.0835381 0.252593
207 1 0.303402 0.145023 0.301147
193 1 0.332687 0.122177 0.448979
141 1 0.451456 0.189474 0.3791
74 1 0.500741 0.0453568 0.404434
216 1 0.331907 0.502504 0.0548892
127 1 0.773366 0.270184 0.37978
303 2 0.676991 0.0125742 0.272581
268 1 0.698849 0.15697 0.267044
301 2 0.574511 0.107623 0.313536
229 1 0.668681 0.0951029 0.399865
158 1 0.616973 0.244541 0.388829
313 2 0.989346 0.134731 0.253201
214 1 0.899698 0.200636 0.464831
305 2 0.799737 0.138456 0.393618
31 1 0.825888 0.0490103 0.296384
288 1 0.965192 0.0887157 0.369523
113 1 0.879766 0.201387 0.306365
82 1 0.338349 0.00529328 0.341757
106 1 0.057209 0.39336 0.444947
274 1 0.146808 0.323493 0.343751
15 1 0.0496123 0.450964 0.289521
63 1 0.217233 0.39498 0.478909
148 1 0.920455 0.343064 0.364622
262 1 0.321423 0.276047 0.401785
326 2 0.269737 0.383009 0.357578
24 1 0.41979 0.391582 0.358625
112 1 0.830454 0.0519917 0.471967
238 1 0.738648 0.442097 0.346775
59 1 0.503413 0.300412 0.475957
354 2 0.507812 0.305819 0.324624
108 1 0.573539 0.404184 0.368245
85 1 0.662285 0.331157 0.254869
308 2 0.946413 0.317265 0.488926
324 2 0.436971 0.472837 0.131763
184 1 0.798195 0.494586 0.201988
340 2 0.487206 0.00811605 0.144356
153 1 0.880087 0.498115 0.3418
318 2 0.30318 0.358388 0.000770967
220 1 0.834595 0.372299 0.483558
338 2 0.272836 0.00528885 0.446925
287 1 0.426776 0.235539 -0.00436847
30 1 0.847225 0.273017 0.0104374
266 1 0.212529 0.103532 0.55793
181 1 0.0820447 0.169717 0.652055
285 1 0.0813964 0.0215351 0.617063
249 1 0.231705 0.14664 0.698029
91 1 0.738705 0.17561 0.51389
89 1 0.37276 0.0205735 0.881993
227 1 0.355923 0.129587 0.60281
111 1 0.377929 0.169017 0.763897
115 1 0.484789 0.0488899 0.632247
298 2 0.32205 0.23735 0.668319
50 1 0.568196 0.168683 0.720975
58 1 0.642649 0.094468 0.607571
335 2 0.697778 0.201543 0.672954
349 2 0.149461 0.466808 0.835704
81 1 0.883364 0.389051 0.79897
325 2 0.880462 0.304476 0.896843
267 1 0.374796 0.375718 0.514036
341 2 0.993608 0.0463276 0.722372
67 1 0.824621 0.163175 0.657428
69 1 0.947401 0.104316 0.595269
209 1 0.784278 0.0221995 0.63186
61 1 0.078835 0.266504 0.533041
143 1 0.181823 0.289617 0.683023
3 1 0.130493 0.442666 0.707972
292 2 0.15298 0.359535 0.5795
126 1 0.0266461 0.313949 0.729058
248 1 0.0200918 0.395386 0.594408
90 1 0.261366 0.261943 0.5544
100 1 0.434372 0.264936 0.627066
71 1 0.262575 0.403714 0.624288
323 2 0.395445 0.386958 0.638923
18 1 0.328276 0.321041 0.757223
134 1 0.527594 0.155172 0.514125
147 1 0.519976 0.338462 0.716771
242 1 0.50636 0.418706 0.577993
160 1 0.595932 0.259516 0.604848
346 2 0.63866 0.389522 0.660885
233 1 0.725193 0.491821 0.582053
286 1 0.7479 0.304223 0.621189
256 1 0.933779 0.267804 0.61903
352 2 0.996256 0.44368 0.724452
44 1 0.875393 0.424873 0.633332
109 1 0.745797 0.431786 0.73646
102 1 0.913945 0.408055 0.957622
65 1 0.133197 0.0306848 0.770217
180 1 0.114389 0.182032 0.818259
345 2 0.188882 0.183395 0.921464
297 2 0.562243 0.0181147 0.526445
53 1 0.154505 0.0275009 0.941879
331 2 0.233838 0.223317 0.790907
142 1 0.126438 0.500365 0.556266
188 1 0.252357 0.103834 0.84701
320 2 0.398669 0.160172 0.8982
49 1 0.312052 0.12051 0.984711
25 1 0.488172 0.0683105 0.802229
133 1 0.501158 0.104433 0.955349
166 1 0.714487 0.107531 0.77343
168 1 0.607453 0.199459 0.881324
45 1 0.625572 0.0345462 0.889539
123 1 0.746033 0.179092 0.927574
73 1 0.0669051 0.163181 0.971314
355 2 0.460137 0.457859 0.994104
9 1 0.015192 0.0592536 0.858066
196 1 0.870345 0.0460763 0.757657
265 1 0.819393 0.238033 0.806079
321 2 0.788626 0.0732674 0.881203
276 1 0.957522 0.172273 0.747711
34 1 0.892067 0.146605 0.921526
277 1 0.671408 0.437292 0.965438
219 1 0.0145368 0.289638 0.889129
252 1 0.331522 0.018108 0.724208
150 1 0.158443 0.341309 0.822024
199 1 0.0138121 0.454884 0.848104
278 1 0.088097 0.411836 0.977722
174 1 0.237258 0.44442 0.926199
84 1 0.292466 0.25791 0.904539
203 1 0.463092 0.25861 0.845601
2 1 0.426478 0.45046 0.759639
48 1 0.269873 0.457601 0.777551
279 1 0.389014 0.387199 0.913581
11 1 0.769266 0.347308 0.892034
182 1 0.534527 0.353645 0.947352
339 2 0.639319 0.326017 0.889638
234 1 0.6135 0.423543 0.809837
5 1 0.670155 0.28885 0.758306
307 2 0.203535 0.0215837 0.668119
17 1 0.74281 -0.00322884 0.979368
10 1 0.60741 0.00460617 0.720498
251 1 0.167781 0.293766 0.984515
344 2 0.385146 0.240426 0.504279
190 1 0.662664 0.351309 0.505553
357 2 0.133082 0.657919 0.0829553
189 1 0.11269 0.557156 0.188685
46 1 0.175514 0.536958 0.0455651
105 1 0.163008 0.739519 0.189455
83 1 0.0233623 0.684453 0.159423
97 1 0.00218327 0.537341 0.0569019
358 2 0.249506 0.52202 0.158938
119 1 0.265382 0.648389 0.111853
237 1 0.393313 0.571637 0.19306
176 1 0.460419 0.581525 0.0249424
359 2 0.425572 0.694639 0.100481
295 2 0.31355 0.711001 0.217157
41 1 0.443306 0.733939 0.243914
226 1 0.545493 0.599079 0.145287
130 1 0.718339 0.642929 0.135504
350 2 0.719516 0.749422 0.0643959
351 2 0.690916 0.516723 0.0969094
205 1 0.602248 0.754005 0.116403
269 1 0.594202 0.984686 0.0556429
208 1 0.885763 0.654403 0.0745007
247 1 0.881958 0.663915 0.235482
37 1 0.951251 0.520061 0.194312
128 1 0.485357 0.777599 0.0102983
332 2 0.950025 0.983392 0.289172
79 1 0.812052 0.515922 0.0580492
104 1 0.103709 0.795711 0.0687928
23 1 0.0717516 0.86884 0.207684
40 1 0.220229 0.877394 0.148528
319 2 0.240434 0.777339 0.0475104
14 1 0.347678 0.795087 0.126956
245 1 0.370017 0.9683 0.168209
32 1 0.494921 0.8619 0.131006
28 1 0.282218 0.985175 0.0437833
156 1 0.452205 0.50408 0.459522
75 1 0.759571 0.910544 0.268547
356 2 0.586714 0.858701 0.0226204
21 1 0.624687 0.905682 0.208054
211 1 0.712351 0.869915 0.0715953
300 2 0.566787 0.792582 0.233164
240 1 0.11208 0.968458 0.0847484
304 2 0.995122 0.928075 0.102669
218 1 0.811632 0.775339 0.153772
114 1 0.950078 0.800229 0.0601771
169 1 0.912877 0.899282 0.208964
191 1 0.860365 0.933175 0.0620208
27 1 0.1573 0.523554 0.398243
131 1 0.109186 0.659793 0.320215
235 1 0.0060907 0.565059 0.401865
312 2 0.0226668 0.698801 0.401786
264 1 0.148374 0.661963 0.472348
185 1 0.229278 0.739116 0.339401
95 1 0.243517 0.598078 0.267462
322 2 0.261013 0.623758 0.399848
87 1 0.306069 0.723051 0.478382
210 1 0.376923 0.639907 0.354078
221 1 0.496784 0.535823 0.297096
96 1 0.883335 0.930222 0.382738
194 1 0.527982 0.643719 0.410799
272 1 0.591132 0.667815 0.276021
157 1 0.67471 0.689355 0.41939
290 2 0.619807 0.570104 0.34784
110 1 0.603634 0.506528 0.483043
275 1 0.324451 0.501235 0.364916
164 1 0.746966 0.607069 0.295058
327 2 0.00190221 0.609813 0.268594
186 1 0.888636 0.657563 0.390616
38 1 0.77112 0.568575 0.451412
271 1 0.0325465 0.900681 0.358428
93 1 0.184191 0.910696 0.31201
294 2 0.108938 0.797502 0.305769
125 1 0.125498 0.81557 0.443908
259 1 0.151754 0.971375 0.480793
98 1 0.47196 0.908088 0.287778
80 1 0.319139 0.850311 0.27343
6 1 0.277284 0.873501 0.440581
54 1 0.414848 0.794803 0.390043
343 2 0.398375 0.91733 0.410426
163 1 0.960326 0.802014 0.452446
309 2 0.754943 0.983106 0.393544
330 2 0.631706 0.862732 0.496265
206 1 0.567431 0.798265 0.365537
244 1 0.69906 0.76521 0.264125
137 1 0.61932 0.944092 0.352275
72 1 0.733352 0.839128 0.404862
20 1 0.517835 0.904338 0.466979
187 1 0.987973 0.762003 0.296567
92 1 0.844426 0.794412 0.320674
212 1 0.98513 0.980317 0.491379
155 1 0.62654 0.584186 0.00748673
8 1 0.441807 0.986232 0.0310485
202 1 0.106511 0.663532 0.641569
254 1 0.225964 0.553123 0.658165
311 2 0.242345 0.661799 0.580745
258 1 0.217862 0.717391 0.720531
171 1 0.358809 0.871703 0.982647
136 1 0.357581 0.685464 0.631912
159 1 0.380887 0.516776 0.612253
232 1 0.486917 0.604447 0.739928
328 2 0.344009 0.575452 0.731356
179 1 0.278742 0.554101 0.503548
316 2 0.395663 0.615343 0.517274
124 1 0.508006 0.605107 0.575015
121 1 0.692354 0.642493 0.571262
270 1 0.60892 0.703184 0.692492
175 1 0.593935 0.505778 0.672699
215 1 0.727094 0.595007 0.716589
197 1 0.558261 0.750057 0.523656
16 1 0.99713 0.53789 0.639433
39 1 0.988614 0.650636 0.52657
35 1 0.952679 0.671867 0.720926
77 1 0.853703 0.603749 0.60042
60 1 0.805085 0.730037 0.697592
201 1 0.825007 0.854134 0.848154
317 2 0.0621467 0.757384 0.533345
224 1 0.180668 0.883617 0.701329
246 1 0.0697962 0.876207 0.575523
217 1 0.0461332 0.796505 0.716313
66 1 0.189986 0.781259 0.582622
360 2 0.057135 0.918595 0.691745
57 1 0.27003 0.936919 0.581074
76 1 0.403506 0.841195 0.555144
167 1 0.329588 0.832221 0.692964
337 2 0.406686 0.937139 0.641846
162 1 0.477466 0.774873 0.677595
228 1 0.0296643 0.685982 0.993962
198 1 0.696363 0.796752 0.593012
200 1 0.567412 0.901927 0.614734
289 2 0.688647 0.933514 0.63347
140 1 0.651129 0.857988 0.730458
172 1 0.677576 0.985027 0.507779
52 1 0.81483 0.899241 0.525791
4 1 0.927526 0.783978 0.606066
55 1 0.807805 0.882921 0.688754
243 1 0.937344 0.946288 0.646048
306 2 0.911794 0.80173 0.751628
145 1 0.809144 0.794151 0.979381
107 1 0.0653308 0.580569 0.770426
222 1 0.0817132 0.566488 0.923925
86 1 0.110457 0.710238 0.844301
70 1 0.232676 0.6035 0.836063
231 1 0.187907 0.689468 0.972637
336 2 0.283458 0.587053 0.961845
88 1 0.370651 0.544164 0.872579
1 1 0.351364 0.69081 0.804364
255 1 0.345565 0.709427 0.979663
132 1 0.479138 0.680552 0.894312
151 1 0.622882 0.608684 0.823937
204 1 0.702853 0.747836 0.825317
12 1 0.631978 0.735102 0.966648
257 1 0.763129 0.528547 0.865228
56 1 0.774483 0.648254 0.970539
314 2 0.974533 0.645667 0.840894
302 2 0.908765 0.711542 0.967557
239 1 0.92089 0.578958 0.929193
94 1 0.838905 0.683674 0.842613
33 1 0.890839 0.531849 0.757139
139 1 0.878898 0.982151 0.903854
129 1 0.0365383 0.908435 0.962469
334 2 0.103956 0.794754 0.94251
19 1 0.114091 0.857623 0.836367
26 1 0.200975 0.864251 0.975748
149 1 0.244635 0.774689 0.861169
117 1 0.246536 0.940483 0.843702
293 2 0.912329 0.866373 0.951469
165 1 0.978041 0.920042 0.804397
78 1 0.473007 0.921847 0.749494
135 1 0.38376 0.8396 0.843176
7 1 0.971874 0.782207 0.872835
223 1 0.663476 0.87292 0.917591
177 1 0.521565 0.906403 0.924633
154 1 0.541417 0.79419 0.817679
348 2 0.584003 0.933641 0.81921
253 1 0.733584 0.961957 0.810425
22 1 0.40007 0.992704 0.517316
116 1 0.525098 0.508243 0.898556
260 1 0.817586 0.734698 0.515959
263 1 0.911815 0.505171 0.505184
ITEM: TIMESTEP
20000000
ITEM: NUMBER OF ATOMS
360
ITEM: BOX BOUNDS pp pp pp
0.0000000000000000e+00 6.6943295008216896e+00
0.0000000000000000e+00 6.6943295008216896e+00
0.0000000000000000e+00 6.6943295008216896e+00
ITEM: ATOMS id type xs ys zs
261 1 0.144237 0.0893734 0.0643068
341 2 0.159293 0.11568 0.210138
138 1 0.0352948 0.140003 0.203157
31 1 0.0459789 0.219343 0.0446349
103 1 0.164701 0.230155 0.168962
324 2 0.265833 0.136071 0.091282
169 1 0.00872978 0.0125937 0.127349
13 1 0.257201 0.0243807 0.154783
207 1 0.306919 0.171789 0.197799
43 1 0.411161 0.0572119 0.11053
225 1 0.458891 0.197192 0.154654
252 1 0.362499 0.203179 0.041326
284 1 0.629145 0.172498 0.125347
47 1 0.710117 0.0467206 0.179114
45 1 0.567958 0.0144803 0.0656854
89 1 0.55235 0.0632526 0.213787
37 1 0.785099 0.211824 0.20696
308 2 0.751719 0.127348 0.0756633
73 1 0.90558 0.177312 0.0919342
99 1 0.844463 0.0229779 0.102369
268 1 0.891757 0.0896184 0.229521
173 1 0.148363 0.379188 0.0461711
95 1 0.199566 0.419377 0.193484
62 1 0.0235047 0.385748 0.137076
319 2 0.984666 0.257928 0.163826
179 1 0.281662 0.45282 0.0373433
326 2 0.368484 0.414234 0.12818
226 1 0.45386 0.341281 0.0699554
101 1 0.296171 0.315663 0.121092
178 1 0.38039 0.322997 0.238091
108 1 0.484426 0.430963 0.192646
277 1 0.708954 0.358226 0.165224
358 2 0.585746 0.374217 0.103426
262 1 0.574017 0.288694 0.213109
316 2 0.602602 0.409201 0.248087
123 1 0.768291 0.251482 0.0468606
353 2 0.920602 0.461555 0.0909846
250 1 0.868635 0.349521 0.131339
184 1 0.910638 0.470541 0.219768
313 2 0.804733 0.388446 0.244676
325 2 0.95758 0.337572 0.0333741
282 1 0.0883192 0.0427738 0.396271
57 1 0.210407 0.0984528 0.477963
64 1 0.119926 0.189213 0.329873
51 1 0.0663808 0.189286 0.472537
28 1 0.234685 0.0761257 0.325471
220 1 0.849675 0.394079 0.363842
63 1 0.494826 0.402154 0.502276
8 1 0.392553 0.0557499 0.264403
24 1 0.320891 0.200402 0.348869
266 1 0.365696 0.0716935 0.416157
170 1 0.472832 0.202706 0.309856
161 1 0.514163 0.0588209 0.363258
200 1 0.654174 0.104544 0.449622
137 1 0.636444 0.173465 0.293584
289 2 0.693193 0.214767 0.395529
344 2 0.547676 0.175133 0.404687
152 1 0.916566 0.287619 0.264637
112 1 0.824766 0.240516 0.374811
96 1 0.775993 0.0960047 0.336332
245 1 0.971633 0.149829 0.346887
72 1 0.906641 0.0132599 0.392794
300 2 0.222516 0.417755 0.471738
61 1 0.22214 0.285146 0.462808
274 1 0.0716793 0.318434 0.268118
357 2 0.0967216 0.304965 0.391037
273 1 0.160092 0.421072 0.358288
59 1 0.230891 0.307238 0.289237
15 1 0.971095 0.305911 0.409089
287 1 0.517187 0.151433 0.0172338
297 2 0.849608 0.299217 0.48427
46 1 0.00516179 0.449411 -0.00597014
267 1 0.426583 0.242482 0.461482
329 2 0.269222 0.45937 0.283575
159 1 0.337714 0.373911 0.381775
42 1 0.715572 0.0169855 0.010774
190 1 0.725873 0.343506 0.470693
155 1 0.50771 0.371554 0.331757
286 1 0.589276 0.28268 0.45266
158 1 0.608119 0.454461 0.396129
238 1 0.721899 0.476374 0.281432
236 1 0.69712 0.31989 0.315398
177 1 0.619109 0.489211 0.137142
256 1 0.99285 0.475085 0.416645
333 2 0.982405 0.404064 0.311098
94 1 0.789004 0.492472 0.118523
291 2 0.406089 0.496099 0.440429
276 1 0.0872612 0.384709 0.495354
235 1 0.06712 0.488159 0.259524
301 2 0.0521445 0.00379579 0.00239642
182 1 0.614864 0.284062 0.00398649
298 2 0.313635 0.173178 0.483367
122 1 0.701094 0.42427 0.0121155
249 1 0.194643 0.187855 0.596211
22 1 0.212546 0.0378271 0.645655
30 1 0.0134406 0.165295 0.621401
343 2 0.115791 0.0854115 0.560237
351 2 0.746664 0.478729 0.723738
160 1 0.132616 0.141186 0.736849
100 1 0.30155 0.174469 0.715243
149 1 0.46829 0.0805675 0.709323
90 1 0.353949 0.0859066 0.568499
338 2 0.415572 0.177964 0.635124
193 1 0.496485 0.124645 0.523085
134 1 0.580571 0.183589 0.692082
58 1 0.699473 0.0983609 0.625245
303 2 0.616388 0.182296 0.548759
337 2 0.561798 0.055041 0.624487
81 1 0.722906 0.215817 0.730023
25 1 0.593622 0.0209202 0.747846
151 1 0.643316 0.500659 0.792713
172 1 0.757683 0.193892 0.511367
265 1 0.863796 0.162432 0.641897
302 2 0.92187 0.0476167 0.626668
78 1 0.821693 0.0513906 0.524127
355 2 0.207653 0.253995 0.710479
312 2 0.107099 0.283566 0.556529
69 1 0.083558 0.287296 0.682161
311 2 0.113053 0.442802 0.624938
18 1 0.199023 0.352492 0.596458
48 1 -0.00264599 0.427646 0.698379
254 1 0.263356 0.483125 0.650037
71 1 0.335171 0.27481 0.575869
174 1 0.42687 0.399232 0.650068
27 1 0.327851 0.434168 0.52448
227 1 0.301008 0.341609 0.730352
50 1 0.505312 0.281591 0.590163
111 1 0.430407 0.25508 0.757231
305 2 0.618522 0.398162 0.506271
5 1 0.65497 0.295107 0.603016
147 1 0.585802 0.419517 0.654385
109 1 0.726494 0.447534 0.590396
318 2 0.553578 0.3039 0.723111
93 1 0.998022 0.0320164 0.528179
140 1 0.929944 0.282887 0.719091
214 1 0.975606 0.31599 0.564459
67 1 0.815537 0.303865 0.607985
257 1 0.855542 0.419987 0.704353
248 1 0.873202 0.4307 0.517483
9 1 0.115864 0.131509 0.914232
331 2 0.223613 0.139276 0.830137
280 1 0.220213 0.249685 0.997855
97 1 0.00792262 0.209169 0.830039
251 1 0.17421 0.257439 0.838688
49 1 0.437549 0.00588969 0.95593
53 1 0.28156 0.100101 0.962557
117 1 0.373956 0.0762015 0.835806
317 2 0.420651 0.146697 0.932662
167 1 0.330539 0.220283 0.875293
115 1 0.51309 0.136923 0.844972
335 2 0.632897 0.149692 0.804749
166 1 0.658075 0.150458 0.953307
36 1 0.730944 0.0701629 0.83233
126 1 0.0563783 0.481902 0.837467
219 1 0.213708 0.0136238 0.795753
288 1 0.916526 0.379313 0.837163
243 1 0.95569 0.0872119 0.745343
183 1 0.818376 0.117297 0.957783
281 1 0.853848 0.187398 0.824582
188 1 0.972449 0.1058 0.969774
180 1 0.164502 0.399341 0.750718
127 1 0.854151 0.418375 0.986649
113 1 0.899934 0.261128 0.954112
278 1 0.0526009 0.32196 0.924059
352 2 0.0423208 0.34612 0.78145
168 1 0.591164 0.267896 0.842255
292 2 0.331436 0.324939 0.983685
241 1 0.2474 0.389431 0.888505
120 1 0.459475 0.282546 0.921185
216 1 0.402809 0.43688 0.930374
340 2 0.370928 0.343414 0.840905
84 1 0.360736 0.480141 0.79531
279 1 0.500521 0.393186 0.798274
60 1 0.77621 0.442174 0.855085