LAMMPS (15 Sep 2022)
OMP_NUM_THREADS environment is not set. Defaulting to 1 thread. (src/comm.cpp:98)
  using 1 OpenMP thread(s) per MPI task
Reading restart file ...
  restart file = 15 Sep 2022, LAMMPS = 15 Sep 2022
  restoring atom style atomic from restart
  orthogonal box = (0 0 0) to (6.6943295 6.6943295 6.6943295)
  1 by 2 by 2 MPI processor grid
  restoring pair style lj/cut from restart
  360 atoms
  read_restart CPU = 0.038 seconds
Setting up equilibration run
Resetting global fix info from restart file:
  fix style: nvt, fix ID: 1
Generated 0 of 1 mixed pair_coeff terms from geometric mixing rule
All restart file global fix info was re-assigned
Neighbor list info ...
  update: every = 1 steps, delay = 20 steps, check = yes
  max neighbors/atom: 2000, page size: 100000
  master list distance cutoff = 3
  ghost atom cutoff = 3
  binsize = 1.5, bins = 5 5 5
  1 neighbor lists, perpetual/occasional/extra = 1 0 0
  (1) pair lj/cut, perpetual
      attributes: half, newton on
      pair build: half/bin/atomonly/newton
      stencil: half/bin/3d
      bin: standard
Setting up Verlet run ...
  Unit style    : lj
  Current step  : 0
  Time step     : 0.002
Per MPI rank memory allocation (min/avg/max) = 3.139 | 3.139 | 3.139 Mbytes
   Step          Temp          E_pair         E_mol          TotEng         Press     
         0   1.5214001     -5.1923617      0             -2.9166007      15.468956    
      1000   1.5243401     -5.1680822      0             -2.8879235      15.677796    
      2000   1.6907715     -5.1970825      0             -2.6679702      15.738205    
      2500   1.5282635     -5.3524107      0             -3.0663833      14.550756    
Loop time of 0.311643 on 4 procs for 2500 steps with 360 atoms

Performance: 1386201.485 tau/day, 8021.999 timesteps/s, 2.888 Matom-step/s
99.1% CPU use with 4 MPI tasks x 1 OpenMP threads

MPI task timing breakdown:
Section |  min time  |  avg time  |  max time  |%varavg| %total
---------------------------------------------------------------
Pair    | 0.13181    | 0.13564    | 0.13953    |   1.0 | 43.52
Neigh   | 0.014529   | 0.014738   | 0.015103   |   0.2 |  4.73
Comm    | 0.10895    | 0.11558    | 0.12127    |   1.3 | 37.09
Output  | 0.020428   | 0.025195   | 0.032856   |   3.0 |  8.08
Modify  | 0.011773   | 0.013977   | 0.015967   |   1.3 |  4.48
Other   |            | 0.006511   |            |       |  2.09

Nlocal:             90 ave          93 max          87 min
Histogram: 1 0 0 0 0 2 0 0 0 1
Nghost:           1230 ave        1250 max        1211 min
Histogram: 1 1 0 0 0 0 0 1 0 1
Neighs:         5197.5 ave        5231 max        5165 min
Histogram: 1 0 0 1 0 1 0 0 0 1

Total # of neighbors = 20790
Ave neighs/atom = 57.75
Neighbor list builds = 86
Dangerous builds = 0
Total wall time: 0:00:00
completed production step for 1.5
LAMMPS (15 Sep 2022)
OMP_NUM_THREADS environment is not set. Defaulting to 1 thread. (src/comm.cpp:98)
  using 1 OpenMP thread(s) per MPI task
Reading restart file ...
  restart file = 15 Sep 2022, LAMMPS = 15 Sep 2022
  restoring atom style atomic from restart
  orthogonal box = (0 0 0) to (6.6943295 6.6943295 6.6943295)
  1 by 2 by 2 MPI processor grid
  restoring pair style lj/cut from restart
  360 atoms
  read_restart CPU = 0.028 seconds
Setting up equilibration run
Resetting global fix info from restart file:
  fix style: nvt, fix ID: 1
Generated 0 of 1 mixed pair_coeff terms from geometric mixing rule
All restart file global fix info was re-assigned
Neighbor list info ...
  update: every = 1 steps, delay = 20 steps, check = yes
  max neighbors/atom: 2000, page size: 100000
  master list distance cutoff = 3
  ghost atom cutoff = 3
  binsize = 1.5, bins = 5 5 5
  1 neighbor lists, perpetual/occasional/extra = 1 0 0
  (1) pair lj/cut, perpetual
      attributes: half, newton on
      pair build: half/bin/atomonly/newton
      stencil: half/bin/3d
      bin: standard
Setting up Verlet run ...
  Unit style    : lj
  Current step  : 0
  Time step     : 0.002
Per MPI rank memory allocation (min/avg/max) = 3.138 | 3.138 | 3.138 Mbytes
   Step          Temp          E_pair         E_mol          TotEng         Press     
         0   1.0108632     -6.013634       0             -4.5015511      9.960712     
      2000   0.97791638    -5.8804359      0             -4.417636       10.84871     
      4000   0.95186572    -6.0468417      0             -4.6230092      9.6139793    
      6000   0.97886946    -6.0562907      0             -4.5920652      9.5700671    
      8000   1.0168331     -5.9534857      0             -4.4324728      10.274187    
     10000   1.0837255     -5.9524617      0             -4.331389       10.462047    
     12000   0.95832388    -5.9913338      0             -4.557841       10.180617    
     12500   1.0406225     -6.1020685      0             -4.5454707      9.4486959    
Loop time of 1.41331 on 4 procs for 12500 steps with 360 atoms

Performance: 1528328.252 tau/day, 8844.492 timesteps/s, 3.184 Matom-step/s
99.5% CPU use with 4 MPI tasks x 1 OpenMP threads

MPI task timing breakdown:
Section |  min time  |  avg time  |  max time  |%varavg| %total
---------------------------------------------------------------
Pair    | 0.65474    | 0.66096    | 0.67592    |   1.1 | 46.77
Neigh   | 0.057622   | 0.058631   | 0.060077   |   0.4 |  4.15
Comm    | 0.55148    | 0.56136    | 0.56714    |   0.8 | 39.72
Output  | 0.024115   | 0.029494   | 0.037534   |   2.9 |  2.09
Modify  | 0.044705   | 0.073583   | 0.10071    |   7.4 |  5.21
Other   |            | 0.02929    |            |       |  2.07

Nlocal:             90 ave          92 max          88 min
Histogram: 1 0 1 0 0 0 0 1 0 1
Nghost:           1238 ave        1243 max        1230 min
Histogram: 1 0 0 0 0 0 1 1 0 1
Neighs:        5188.25 ave        5370 max        5014 min
Histogram: 1 0 0 0 1 1 0 0 0 1

Total # of neighbors = 20753
Ave neighs/atom = 57.647222
Neighbor list builds = 343
Dangerous builds = 0
Total wall time: 0:00:01
completed production step for 1.0
LAMMPS (15 Sep 2022)
OMP_NUM_THREADS environment is not set. Defaulting to 1 thread. (src/comm.cpp:98)
  using 1 OpenMP thread(s) per MPI task
Reading restart file ...
  restart file = 15 Sep 2022, LAMMPS = 15 Sep 2022
  restoring atom style atomic from restart
  orthogonal box = (0 0 0) to (6.6943295 6.6943295 6.6943295)
  1 by 2 by 2 MPI processor grid
  restoring pair style lj/cut from restart
  360 atoms
  read_restart CPU = 0.069 seconds
Setting up equilibration run
Resetting global fix info from restart file:
  fix style: nvt, fix ID: 1
Generated 0 of 1 mixed pair_coeff terms from geometric mixing rule
All restart file global fix info was re-assigned
Neighbor list info ...
  update: every = 1 steps, delay = 25 steps, check = yes
  max neighbors/atom: 2000, page size: 100000
  master list distance cutoff = 3
  ghost atom cutoff = 3
  binsize = 1.5, bins = 5 5 5
  1 neighbor lists, perpetual/occasional/extra = 1 0 0
  (1) pair lj/cut, perpetual
      attributes: half, newton on
      pair build: half/bin/atomonly/newton
      stencil: half/bin/3d
      bin: standard
Setting up Verlet run ...
  Unit style    : lj
  Current step  : 0
  Time step     : 0.002
Per MPI rank memory allocation (min/avg/max) = 3.137 | 3.137 | 3.138 Mbytes
   Step          Temp          E_pair         E_mol          TotEng         Press     
         0   0.86682428    -6.268331       0             -4.9717064      8.0526361    
      5000   0.85363894    -6.1692417      0             -4.8923402      9.0262436    
     10000   1.0349042     -6.1467294      0             -4.5986852      9.2150579    
     15000   0.87158815    -6.1693719      0             -4.8656213      8.8613711    
     20000   0.91302236    -6.1810234      0             -4.8152942      8.7471884    
     25000   0.95578697    -6.2949559      0             -4.8652579      7.9824722    
     30000   0.84109698    -6.1574803      0             -4.8993394      8.6426033    
     35000   0.89461444    -6.1811788      0             -4.8429847      8.7681104    
     37500   0.88314073    -6.1624577      0             -4.8414263      8.809592     
Loop time of 4.10309 on 4 procs for 37500 steps with 360 atoms

Performance: 1579297.340 tau/day, 9139.452 timesteps/s, 3.290 Matom-step/s
99.6% CPU use with 4 MPI tasks x 1 OpenMP threads

MPI task timing breakdown:
Section |  min time  |  avg time  |  max time  |%varavg| %total
---------------------------------------------------------------
Pair    | 1.9548     | 1.9817     | 2.0159     |   1.6 | 48.30
Neigh   | 0.1619     | 0.16424    | 0.16723    |   0.5 |  4.00
Comm    | 1.5935     | 1.6492     | 1.6835     |   2.6 | 40.19
Output  | 0.024898   | 0.030176   | 0.038335   |   2.9 |  0.74
Modify  | 0.16803    | 0.20863    | 0.24152    |   6.0 |  5.08
Other   |            | 0.06919    |            |       |  1.69

Nlocal:             90 ave          93 max          88 min
Histogram: 2 0 0 0 0 0 1 0 0 1
Nghost:         1250.5 ave        1279 max        1220 min
Histogram: 1 0 1 0 0 0 0 0 1 1
Neighs:        5195.75 ave        5409 max        4976 min
Histogram: 1 1 0 0 0 0 0 0 1 1

Total # of neighbors = 20783
Ave neighs/atom = 57.730556
Neighbor list builds = 962
Dangerous builds = 0
Total wall time: 0:00:04
completed production step for 0.9
LAMMPS (15 Sep 2022)
OMP_NUM_THREADS environment is not set. Defaulting to 1 thread. (src/comm.cpp:98)
  using 1 OpenMP thread(s) per MPI task
Reading restart file ...
  restart file = 15 Sep 2022, LAMMPS = 15 Sep 2022
  restoring atom style atomic from restart
  orthogonal box = (0 0 0) to (6.6943295 6.6943295 6.6943295)
  1 by 2 by 2 MPI processor grid
  restoring pair style lj/cut from restart
  360 atoms
  read_restart CPU = 0.041 seconds
Setting up equilibration run
Resetting global fix info from restart file:
  fix style: nvt, fix ID: 1
Generated 0 of 1 mixed pair_coeff terms from geometric mixing rule
All restart file global fix info was re-assigned
Neighbor list info ...
  update: every = 1 steps, delay = 25 steps, check = yes
  max neighbors/atom: 2000, page size: 100000
  master list distance cutoff = 3
  ghost atom cutoff = 3
  binsize = 1.5, bins = 5 5 5
  1 neighbor lists, perpetual/occasional/extra = 1 0 0
  (1) pair lj/cut, perpetual
      attributes: half, newton on
      pair build: half/bin/atomonly/newton
      stencil: half/bin/3d
      bin: standard
Setting up Verlet run ...
  Unit style    : lj
  Current step  : 0
  Time step     : 0.002
Per MPI rank memory allocation (min/avg/max) = 3.136 | 3.136 | 3.137 Mbytes
   Step          Temp          E_pair         E_mol          TotEng         Press     
         0   0.81376773    -6.300452       0             -5.0831911      7.8028198    
      5000   0.80760317    -6.1846958      0             -4.9766561      8.6196636    
     10000   0.84384236    -6.267293       0             -5.0050455      8.2774864    
     15000   0.8056096     -6.314924       0             -5.1098663      7.7220892    
     20000   0.84004648    -6.3399688      0             -5.0833993      7.7683076    
     25000   0.75589502    -6.4795467      0             -5.3488537      6.7477572    
     30000   0.76499011    -6.4453924      0             -5.3010947      6.8487794    
     35000   0.7649391     -6.3955619      0             -5.2513405      7.2554966    
     37500   0.80734116    -6.381291       0             -5.1736432      7.4939719    
Loop time of 4.10934 on 4 procs for 37500 steps with 360 atoms

Performance: 1576895.439 tau/day, 9125.552 timesteps/s, 3.285 Matom-step/s
99.5% CPU use with 4 MPI tasks x 1 OpenMP threads

MPI task timing breakdown:
Section |  min time  |  avg time  |  max time  |%varavg| %total
---------------------------------------------------------------
Pair    | 1.9038     | 1.9684     | 2.0264     |   3.4 | 47.90
Neigh   | 0.14891    | 0.15131    | 0.15354    |   0.5 |  3.68
Comm    | 1.619      | 1.6657     | 1.7404     |   3.6 | 40.53
Output  | 0.030504   | 0.035711   | 0.044049   |   2.7 |  0.87
Modify  | 0.19786    | 0.21304    | 0.24797    |   4.4 |  5.18
Other   |            | 0.07519    |            |       |  1.83

Nlocal:             90 ave          92 max          87 min
Histogram: 1 0 0 0 1 0 0 0 0 2
Nghost:        1240.75 ave        1267 max        1209 min
Histogram: 1 0 0 0 0 1 1 0 0 1
Neighs:           5189 ave        5452 max        5081 min
Histogram: 2 1 0 0 0 0 0 0 0 1

Total # of neighbors = 20756
Ave neighs/atom = 57.655556
Neighbor list builds = 889
Dangerous builds = 0
Total wall time: 0:00:04
completed production step for 0.8
LAMMPS (15 Sep 2022)
OMP_NUM_THREADS environment is not set. Defaulting to 1 thread. (src/comm.cpp:98)
  using 1 OpenMP thread(s) per MPI task
Reading restart file ...
  restart file = 15 Sep 2022, LAMMPS = 15 Sep 2022
  restoring atom style atomic from restart
  orthogonal box = (0 0 0) to (6.6943295 6.6943295 6.6943295)
  1 by 2 by 2 MPI processor grid
  restoring pair style lj/cut from restart
  360 atoms
  read_restart CPU = 0.038 seconds
Setting up equilibration run
Resetting global fix info from restart file:
  fix style: nvt, fix ID: 1
Generated 0 of 1 mixed pair_coeff terms from geometric mixing rule
All restart file global fix info was re-assigned
Neighbor list info ...
  update: every = 1 steps, delay = 25 steps, check = yes
  max neighbors/atom: 2000, page size: 100000
  master list distance cutoff = 3
  ghost atom cutoff = 3
  binsize = 1.5, bins = 5 5 5
  1 neighbor lists, perpetual/occasional/extra = 1 0 0
  (1) pair lj/cut, perpetual
      attributes: half, newton on
      pair build: half/bin/atomonly/newton
      stencil: half/bin/3d
      bin: standard
Setting up Verlet run ...
  Unit style    : lj
  Current step  : 0
  Time step     : 0.003
Per MPI rank memory allocation (min/avg/max) = 3.139 | 3.139 | 3.139 Mbytes
   Step          Temp          E_pair         E_mol          TotEng         Press     
         0   0.6658952     -6.5523372      0             -5.556269       6.092627     
      6000   0.70387728    -6.5573563      0             -5.5044732      6.2903587    
     12000   0.63041953    -6.5801682      0             -5.6371656      6.0055152    
     18000   0.67369146    -6.4471376      0             -5.4394074      6.7656639    
     24000   0.65720179    -6.5608113      0             -5.577747       6.2107011    
     30000   0.66919943    -6.4357805      0             -5.4347697      6.9880734    
     36000   0.67557826    -6.5605469      0             -5.5499944      6.2361324    
     42000   0.73820094    -6.5466063      0             -5.4423807      6.3360143    
     45000   0.68432328    -6.4689734      0             -5.4453398      6.7875186    
Loop time of 4.964 on 4 procs for 45000 steps with 360 atoms

Performance: 2349718.876 tau/day, 9065.273 timesteps/s, 3.263 Matom-step/s
99.6% CPU use with 4 MPI tasks x 1 OpenMP threads

MPI task timing breakdown:
Section |  min time  |  avg time  |  max time  |%varavg| %total
---------------------------------------------------------------
Pair    | 2.3322     | 2.3821     | 2.4303     |   2.3 | 47.99
Neigh   | 0.24828    | 0.25159    | 0.25548    |   0.5 |  5.07
Comm    | 1.9523     | 1.9924     | 2.0657     |   3.1 | 40.14
Output  | 0.025381   | 0.030585   | 0.038796   |   2.9 |  0.62
Modify  | 0.22774    | 0.24956    | 0.29275    |   5.2 |  5.03
Other   |            | 0.05772    |            |       |  1.16

Nlocal:             90 ave          90 max          90 min
Histogram: 4 0 0 0 0 0 0 0 0 0
Nghost:           1242 ave        1255 max        1235 min
Histogram: 1 0 2 0 0 0 0 0 0 1
Neighs:        5198.25 ave        5315 max        5082 min
Histogram: 1 0 0 0 1 1 0 0 0 1

Total # of neighbors = 20793
Ave neighs/atom = 57.758333
Neighbor list builds = 1473
Dangerous builds = 103
Total wall time: 0:00:05
completed production step for 0.7
LAMMPS (15 Sep 2022)
OMP_NUM_THREADS environment is not set. Defaulting to 1 thread. (src/comm.cpp:98)
  using 1 OpenMP thread(s) per MPI task
Reading restart file ...
  restart file = 15 Sep 2022, LAMMPS = 15 Sep 2022
  restoring atom style atomic from restart
  orthogonal box = (0 0 0) to (6.6943295 6.6943295 6.6943295)
  1 by 2 by 2 MPI processor grid
  restoring pair style lj/cut from restart
  360 atoms
  read_restart CPU = 0.046 seconds
Setting up equilibration run
Resetting global fix info from restart file:
  fix style: nvt, fix ID: 1
Generated 0 of 1 mixed pair_coeff terms from geometric mixing rule
All restart file global fix info was re-assigned
Neighbor list info ...
  update: every = 1 steps, delay = 25 steps, check = yes
  max neighbors/atom: 2000, page size: 100000
  master list distance cutoff = 3
  ghost atom cutoff = 3
  binsize = 1.5, bins = 5 5 5
  1 neighbor lists, perpetual/occasional/extra = 1 0 0
  (1) pair lj/cut, perpetual
      attributes: half, newton on
      pair build: half/bin/atomonly/newton
      stencil: half/bin/3d
      bin: standard
Setting up Verlet run ...
  Unit style    : lj
  Current step  : 0
  Time step     : 0.003
Per MPI rank memory allocation (min/avg/max) = 3.138 | 3.138 | 3.139 Mbytes
   Step          Temp          E_pair         E_mol          TotEng         Press     
         0   0.58960392    -6.4854017      0             -5.6034525      6.4768742    
     70000   0.68622606    -6.539853       0             -5.5133731      6.2071634    
     87500   0.6781784     -6.7051876      0             -5.6907457      5.1575375    
Loop time of 9.65575 on 4 procs for 87500 steps with 360 atoms

Performance: 2348859.376 tau/day, 9061.957 timesteps/s, 3.262 Matom-step/s
99.5% CPU use with 4 MPI tasks x 1 OpenMP threads

MPI task timing breakdown:
Section |  min time  |  avg time  |  max time  |%varavg| %total
---------------------------------------------------------------
Pair    | 4.597      | 4.6326     | 4.6883     |   1.6 | 47.98
Neigh   | 0.46653    | 0.47075    | 0.47577    |   0.5 |  4.88
Comm    | 3.774      | 3.8787     | 3.9744     |   3.6 | 40.17
Output  | 0.063943   | 0.069369   | 0.078066   |   2.0 |  0.72
Modify  | 0.41644    | 0.48474    | 0.54555    |   7.2 |  5.02
Other   |            | 0.1196     |            |       |  1.24

Nlocal:             90 ave          91 max          88 min
Histogram: 1 0 0 0 0 0 1 0 0 2
Nghost:           1249 ave        1258 max        1244 min
Histogram: 2 0 0 1 0 0 0 0 0 1
Neighs:         5195.5 ave        5313 max        4954 min
Histogram: 1 0 0 0 0 0 1 0 0 2

Total # of neighbors = 20782
Ave neighs/atom = 57.727778
Neighbor list builds = 2753
Dangerous builds = 104
Total wall time: 0:00:09
completed production step for 0.65
LAMMPS (15 Sep 2022)
OMP_NUM_THREADS environment is not set. Defaulting to 1 thread. (src/comm.cpp:98)
  using 1 OpenMP thread(s) per MPI task
Reading restart file ...
  restart file = 15 Sep 2022, LAMMPS = 15 Sep 2022
  restoring atom style atomic from restart
  orthogonal box = (0 0 0) to (6.6943295 6.6943295 6.6943295)
  1 by 2 by 2 MPI processor grid
  restoring pair style lj/cut from restart
  360 atoms
  read_restart CPU = 0.083 seconds
Setting up equilibration run
Resetting global fix info from restart file:
  fix style: nvt, fix ID: 1
Generated 0 of 1 mixed pair_coeff terms from geometric mixing rule
All restart file global fix info was re-assigned
Neighbor list info ...
  update: every = 1 steps, delay = 25 steps, check = yes
  max neighbors/atom: 2000, page size: 100000
  master list distance cutoff = 3
  ghost atom cutoff = 3
  binsize = 1.5, bins = 5 5 5
  1 neighbor lists, perpetual/occasional/extra = 1 0 0
  (1) pair lj/cut, perpetual
      attributes: half, newton on
      pair build: half/bin/atomonly/newton
      stencil: half/bin/3d
      bin: standard
Setting up Verlet run ...
  Unit style    : lj
  Current step  : 0
  Time step     : 0.003
Per MPI rank memory allocation (min/avg/max) = 3.14 | 3.14 | 3.14 Mbytes
   Step          Temp          E_pair         E_mol          TotEng         Press     
         0   0.59618546    -6.6688587      0             -5.7770646      5.3676529    
     50000   0.58571024    -6.71056        0             -5.8344351      4.9942593    
    100000   0.61232065    -6.691901       0             -5.7759714      5.2932611    
    150000   0.51101984    -6.70271        0             -5.9383095      5.0375426    
    200000   0.59841701    -6.756765       0             -5.8616329      4.6155228    
    250000   0.59983615    -6.6361312      0             -5.7388763      5.579378     
Loop time of 27.2974 on 4 procs for 250000 steps with 360 atoms

Performance: 2373853.112 tau/day, 9158.384 timesteps/s, 3.297 Matom-step/s
99.6% CPU use with 4 MPI tasks x 1 OpenMP threads

MPI task timing breakdown:
Section |  min time  |  avg time  |  max time  |%varavg| %total
---------------------------------------------------------------
Pair    | 13.087     | 13.157     | 13.228     |   1.4 | 48.20
Neigh   | 1.261      | 1.2725     | 1.2807     |   0.7 |  4.66
Comm    | 10.785     | 11.035     | 11.265     |   5.2 | 40.43
Output  | 0.067237   | 0.073191   | 0.083072   |   2.2 |  0.27
Modify  | 1.1269     | 1.3913     | 1.6678     |  16.4 |  5.10
Other   |            | 0.3679     |            |       |  1.35

Nlocal:             90 ave          93 max          88 min
Histogram: 1 0 1 0 1 0 0 0 0 1
Nghost:         1241.5 ave        1250 max        1227 min
Histogram: 1 0 0 0 0 0 1 0 0 2
Neighs:        5206.75 ave        5357 max        5104 min
Histogram: 2 0 0 0 0 1 0 0 0 1

Total # of neighbors = 20827
Ave neighs/atom = 57.852778
Neighbor list builds = 7467
Dangerous builds = 142
Total wall time: 0:00:27
completed production step for 0.6
LAMMPS (15 Sep 2022)
OMP_NUM_THREADS environment is not set. Defaulting to 1 thread. (src/comm.cpp:98)
  using 1 OpenMP thread(s) per MPI task
Reading restart file ...
  restart file = 15 Sep 2022, LAMMPS = 15 Sep 2022
  restoring atom style atomic from restart
  orthogonal box = (0 0 0) to (6.6943295 6.6943295 6.6943295)
  1 by 2 by 2 MPI processor grid
  restoring pair style lj/cut from restart
  360 atoms
  read_restart CPU = 0.048 seconds
Setting up equilibration run
Resetting global fix info from restart file:
  fix style: nvt, fix ID: 1
Generated 0 of 1 mixed pair_coeff terms from geometric mixing rule
All restart file global fix info was re-assigned
Neighbor list info ...
  update: every = 1 steps, delay = 25 steps, check = yes
  max neighbors/atom: 2000, page size: 100000
  master list distance cutoff = 3
  ghost atom cutoff = 3
  binsize = 1.5, bins = 5 5 5
  1 neighbor lists, perpetual/occasional/extra = 1 0 0
  (1) pair lj/cut, perpetual
      attributes: half, newton on
      pair build: half/bin/atomonly/newton
      stencil: half/bin/3d
      bin: standard
Setting up Verlet run ...
  Unit style    : lj
  Current step  : 0
  Time step     : 0.003
Per MPI rank memory allocation (min/avg/max) = 3.137 | 3.138 | 3.139 Mbytes
   Step          Temp          E_pair         E_mol          TotEng         Press     
         0   0.55481571    -6.7588133      0             -5.9289015      4.7707534    
     30000   0.55079752    -6.8369997      0             -6.0130984      4.2081817    
     60000   0.55706833    -6.7993763      0             -5.9660949      4.4732563    
     90000   0.52207469    -6.8521949      0             -6.0712582      4.0470209    
    120000   0.52523366    -6.788104       0             -6.0024419      4.4851411    
    150000   0.54089449    -6.8388731      0             -6.0297851      4.2823964    
    180000   0.58205476    -6.7830529      0             -5.912396       4.7288935    
    210000   0.54378243    -6.8413608      0             -6.0279529      4.1856181    
    240000   0.55250079    -6.8044878      0             -5.9780387      4.480696     
    270000   0.5301995     -6.8001163      0             -6.0070262      4.503676     
    300000   0.55389952    -6.823584       0             -5.9950426      4.3870974    
    330000   0.53429265    -6.7906182      0             -5.9914054      4.6644549    
    360000   0.53667168    -6.8211688      0             -6.0183974      4.5268895    
    390000   0.52924235    -6.8066524      0             -6.0149941      4.4333143    
    420000   0.51448355    -6.8165298      0             -6.0469482      4.3722979    
    450000   0.52490147    -6.7139079      0             -5.9287428      5.0674593    
    480000   0.55325124    -6.8159133      0             -5.9883416      4.3327222    
    510000   0.55008521    -6.8160819      0             -5.9932462      4.3590469    
    540000   0.54685383    -6.780385       0             -5.9623829      4.534463     
    570000   0.54684857    -6.8005864      0             -5.9825921      4.2598882    
    600000   0.53013241    -6.7815359      0             -5.9885462      4.4255912    
    630000   0.56269416    -6.8265939      0             -5.9848972      4.3753187    
    660000   0.58633353    -6.7705963      0             -5.8935391      4.6143634    
    690000   0.54362148    -6.8125269      0             -5.9993598      4.3934534    
    720000   0.56122948    -6.787865       0             -5.9483593      4.6485243    
    750000   0.5591647     -6.7372369      0             -5.9008197      4.9835769    
Loop time of 81.4544 on 4 procs for 750000 steps with 360 atoms

Performance: 2386611.370 tau/day, 9207.606 timesteps/s, 3.315 Matom-step/s
99.6% CPU use with 4 MPI tasks x 1 OpenMP threads

MPI task timing breakdown:
Section |  min time  |  avg time  |  max time  |%varavg| %total
---------------------------------------------------------------
Pair    | 38.606     | 39.234     | 39.721     |   6.4 | 48.17
Neigh   | 3.5708     | 3.6028     | 3.6423     |   1.4 |  4.42
Comm    | 32.649     | 33.194     | 34.203     |  10.4 | 40.75
Output  | 0.041317   | 0.047203   | 0.057205   |   2.8 |  0.06
Modify  | 3.7392     | 4.1897     | 4.8291     |  20.5 |  5.14
Other   |            | 1.187      |            |       |  1.46

Nlocal:             90 ave          95 max          86 min
Histogram: 1 0 1 0 0 1 0 0 0 1
Nghost:         1248.5 ave        1269 max        1233 min
Histogram: 1 0 1 0 1 0 0 0 0 1
Neighs:           5204 ave        5563 max        4953 min
Histogram: 1 0 0 2 0 0 0 0 0 1

Total # of neighbors = 20816
Ave neighs/atom = 57.822222
Neighbor list builds = 21188
Dangerous builds = 157
Total wall time: 0:01:21
completed production step for 0.55
LAMMPS (15 Sep 2022)
OMP_NUM_THREADS environment is not set. Defaulting to 1 thread. (src/comm.cpp:98)
  using 1 OpenMP thread(s) per MPI task
Reading restart file ...
  restart file = 15 Sep 2022, LAMMPS = 15 Sep 2022
  restoring atom style atomic from restart
  orthogonal box = (0 0 0) to (6.6943295 6.6943295 6.6943295)
  1 by 2 by 2 MPI processor grid
  restoring pair style lj/cut from restart
  360 atoms
  read_restart CPU = 0.040 seconds
Setting up equilibration run
Resetting global fix info from restart file:
  fix style: nvt, fix ID: 1
Generated 0 of 1 mixed pair_coeff terms from geometric mixing rule
All restart file global fix info was re-assigned
Neighbor list info ...
  update: every = 1 steps, delay = 25 steps, check = yes
  max neighbors/atom: 2000, page size: 100000
  master list distance cutoff = 3
  ghost atom cutoff = 3
  binsize = 1.5, bins = 5 5 5
  1 neighbor lists, perpetual/occasional/extra = 1 0 0
  (1) pair lj/cut, perpetual
      attributes: half, newton on
      pair build: half/bin/atomonly/newton
      stencil: half/bin/3d
      bin: standard
Setting up Verlet run ...
  Unit style    : lj
  Current step  : 0
  Time step     : 0.003
Per MPI rank memory allocation (min/avg/max) = 3.14 | 3.14 | 3.141 Mbytes
   Step          Temp          E_pair         E_mol          TotEng         Press     
         0   0.4879122     -6.8919193      0             -6.162084       3.7676154    
    100000   0.47374326    -6.9065108      0             -6.1978698      3.6703474    
    200000   0.50112145    -6.8896327      0             -6.1400386      3.8854488    
    300000   0.46898091    -6.9253636      0             -6.2238463      3.7189715    
    400000   0.50635877    -6.8473423      0             -6.089914       4.0721932    
    500000   0.55188657    -6.9147295      0             -6.0891992      3.8154119    
    600000   0.51449048    -6.9194878      0             -6.1498958      3.6196215    
    700000   0.50945152    -6.8208856      0             -6.0588311      4.3628561    
    800000   0.56901053    -6.8186077      0             -5.9674627      4.4999509    
    900000   0.4836583     -6.8540791      0             -6.1306069      3.9489652    
   1000000   0.51074364    -6.9088817      0             -6.1448943      4.0381322    
   1100000   0.50638541    -6.8973583      0             -6.1398902      3.8147393    
   1200000   0.49800862    -6.8001334      0             -6.0551955      4.489064     
   1300000   0.51054242    -6.8260166      0             -6.0623302      4.2100905    
   1400000   0.49545219    -6.9138008      0             -6.1726869      3.6851741    
   1500000   0.49072485    -6.8623867      0             -6.1283441      4.1137688    
   1600000   0.50129446    -6.9149603      0             -6.1651074      3.6136925    
   1700000   0.49787371    -6.9622729      0             -6.2175368      3.3614039    
   1800000   0.5148343     -6.8856926      0             -6.1155863      4.070772     
   1900000   0.45986697    -6.8872969      0             -6.1994125      4.0001743    
   2000000   0.54744989    -6.937234       0             -6.1183402      3.6175132    
   2100000   0.4676234     -6.9363699      0             -6.2368832      3.5088379    
   2200000   0.51196149    -6.8810369      0             -6.1152278      3.9827547    
   2300000   0.50384221    -6.8851142      0             -6.1314502      3.9777626    
   2400000   0.49491059    -6.9798511      0             -6.2395474      3.2665936    
   2500000   0.50646175    -6.8547288      0             -6.0971465      4.0825354    
Loop time of 288.121 on 4 procs for 2500000 steps with 360 atoms

Performance: 2249056.281 tau/day, 8676.915 timesteps/s, 3.124 Matom-step/s
99.7% CPU use with 4 MPI tasks x 1 OpenMP threads

MPI task timing breakdown:
Section |  min time  |  avg time  |  max time  |%varavg| %total
---------------------------------------------------------------
Pair    | 129.66     | 136.83     | 146.33     |  52.2 | 47.49
Neigh   | 11.315     | 11.871     | 12.603     |  13.5 |  4.12
Comm    | 112.65     | 120.2      | 124.54     |  41.9 | 41.72
Output  | 0.049927   | 0.055966   | 0.067307   |   2.9 |  0.02
Modify  | 11.098     | 14.771     | 19.149     |  75.2 |  5.13
Other   |            | 4.396      |            |       |  1.53

Nlocal:             90 ave          95 max          87 min
Histogram: 1 1 0 1 0 0 0 0 0 1
Nghost:         1234.5 ave        1255 max        1214 min
Histogram: 1 0 0 1 0 0 1 0 0 1
Neighs:           5181 ave        5440 max        4938 min
Histogram: 1 0 0 1 0 0 1 0 0 1

Total # of neighbors = 20724
Ave neighs/atom = 57.566667
Neighbor list builds = 66398
Dangerous builds = 150
Total wall time: 0:04:48
completed production step for 0.5
LAMMPS (15 Sep 2022)
OMP_NUM_THREADS environment is not set. Defaulting to 1 thread. (src/comm.cpp:98)
  using 1 OpenMP thread(s) per MPI task
Reading restart file ...
  restart file = 15 Sep 2022, LAMMPS = 15 Sep 2022
  restoring atom style atomic from restart
  orthogonal box = (0 0 0) to (6.6943295 6.6943295 6.6943295)
  1 by 2 by 2 MPI processor grid
  restoring pair style lj/cut from restart
  360 atoms
  read_restart CPU = 0.041 seconds
Setting up equilibration run
Resetting global fix info from restart file:
  fix style: nvt, fix ID: 1
Generated 0 of 1 mixed pair_coeff terms from geometric mixing rule
All restart file global fix info was re-assigned
Neighbor list info ...
  update: every = 1 steps, delay = 25 steps, check = yes
  max neighbors/atom: 2000, page size: 100000
  master list distance cutoff = 3
  ghost atom cutoff = 3
  binsize = 1.5, bins = 5 5 5
  1 neighbor lists, perpetual/occasional/extra = 1 0 0
  (1) pair lj/cut, perpetual
      attributes: half, newton on
      pair build: half/bin/atomonly/newton
      stencil: half/bin/3d
      bin: standard
Setting up Verlet run ...
  Unit style    : lj
  Current step  : 0
  Time step     : 0.003
Per MPI rank memory allocation (min/avg/max) = 3.136 | 3.137 | 3.139 Mbytes
   Step          Temp          E_pair         E_mol          TotEng         Press     
         0   0.47951567    -6.9740644      0             -6.2567889      3.362695     
    300000   0.46040727    -7.0268458      0             -6.3381533      2.9567992    
    600000   0.46921816    -6.9258666      0             -6.2239944      3.6327561    
    900000   0.46655584    -6.9433683      0             -6.2454785      3.4665308    
   1200000   0.46984274    -6.9271512      0             -6.2243448      3.5945491    
   1500000   0.49113504    -6.9272022      0             -6.1925461      3.5792384    
   1800000   0.46001204    -6.9418959      0             -6.2537945      3.5786899    
   2100000   0.46713267    -6.9112992      0             -6.2125466      3.7699382    
   2400000   0.48094149    -6.9712192      0             -6.2518109      3.2417585    
   2700000   0.4785796     -6.9312014      0             -6.2153261      3.6492782    
   3000000   0.47668041    -6.8913862      0             -6.1783517      3.8966841    
   3300000   0.45645792    -6.9120867      0             -6.2293017      3.727298     
   3600000   0.48396651    -6.9687508      0             -6.2448175      3.3728488    
   3900000   0.46630033    -6.9507972      0             -6.2532896      3.5014159    
   4200000   0.4734918     -6.9581861      0             -6.2499213      3.3489905    
   4500000   0.4966585     -6.9612699      0             -6.2183516      3.518164     
   4800000   0.48782483    -6.9701047      0             -6.2404         3.4107652    
   5100000   0.48869326    -6.9489287      0             -6.2179251      3.6720989    
   5400000   0.48664965    -6.9590173      0             -6.2310705      3.3966387    
   5700000   0.49848293    -6.9021882      0             -6.1565409      3.8875889    
   6000000   0.46661319    -6.9272944      0             -6.2293189      3.5497657    
   6300000   0.46988736    -7.041512       0             -6.3386388      2.8552353    
   6600000   0.45436146    -6.981413       0             -6.301764       3.3970736    
   6900000   0.4506678     -6.9367321      0             -6.2626082      3.5328156    
   7200000   0.46130003    -6.9749244      0             -6.2848964      3.3247861    
   7500000   0.41587722    -6.8899069      0             -6.2678239      3.7956191    
Loop time of 851.237 on 4 procs for 7500000 steps with 360 atoms

Performance: 2283734.388 tau/day, 8810.704 timesteps/s, 3.172 Matom-step/s
99.6% CPU use with 4 MPI tasks x 1 OpenMP threads

MPI task timing breakdown:
Section |  min time  |  avg time  |  max time  |%varavg| %total
---------------------------------------------------------------
Pair    | 392.79     | 404.32     | 422.19     |  54.4 | 47.50
Neigh   | 32.715     | 33.879     | 35.601     |  18.7 |  3.98
Comm    | 339.95     | 353.63     | 364.04     |  49.9 | 41.54
Output  | 0.047503   | 0.053847   | 0.064462   |   2.8 |  0.01
Modify  | 37.215     | 45.476     | 53.245     | 111.8 |  5.34
Other   |            | 13.88      |            |       |  1.63

Nlocal:             90 ave          92 max          88 min
Histogram: 1 0 1 0 0 0 0 1 0 1
Nghost:         1251.5 ave        1264 max        1237 min
Histogram: 1 0 1 0 0 0 0 0 1 1
Neighs:        5191.75 ave        5267 max        5054 min
Histogram: 1 0 0 0 0 0 1 0 0 2

Total # of neighbors = 20767
Ave neighs/atom = 57.686111
Neighbor list builds = 192473
Dangerous builds = 233
Total wall time: 0:14:11
completed production step for 0.475
LAMMPS (15 Sep 2022)
OMP_NUM_THREADS environment is not set. Defaulting to 1 thread. (src/comm.cpp:98)
  using 1 OpenMP thread(s) per MPI task
Reading restart file ...
ERROR on proc 0: Cannot open restart file equil/kalj_T0.45_n360_v300_100000000_1.final.lmprestart.100000000: No such file or directory (src/read_restart.cpp:113)
Last command: read_restart ${prevbasename}.final.lmprestart.${steps}
--------------------------------------------------------------------------
MPI_ABORT was invoked on rank 0 in communicator MPI_COMM_WORLD
with errorcode 1.

NOTE: invoking MPI_ABORT causes Open MPI to kill all MPI processes.
You may or may not see output from other processes, depending on
exactly when Open MPI kills them.
--------------------------------------------------------------------------
completed production step for 0.45
completed all temps
